PSF

      42 !NTITLE
 REMARKS original generated structure x-plor psf file
 REMARKS 33 patches were applied to the molecule.
 REMARKS topology ASO_ELF3_autopsf-temp.top 
 REMARKS segment AN1 { first 5TER; last 3TER; auto angles dihedrals }
 REMARKS segment AN2 { first 5TER; last 3TER; auto angles dihedrals }
 REMARKS segment AN3 { first 5TER; last 3TER; auto angles dihedrals }
 REMARKS segment AN4 { first 5TER; last 3TER; auto angles dihedrals }
 REMARKS segment AN5 { first 5TER; last 3TER; auto angles dihedrals }
 REMARKS segment BN1 { first 5TER; last 3TER; auto angles dihedrals }
 REMARKS patch 3TER AN1:2  
 REMARKS patch 5TER AN1:2  
 REMARKS patch DEO5 AN1:2  
 REMARKS patch 3TER AN2:7  
 REMARKS patch 5TER AN2:7  
 REMARKS patch DEO5 AN2:7  
 REMARKS patch 3TER AN3:9  
 REMARKS patch 5TER AN3:9  
 REMARKS patch DEO5 AN3:9  
 REMARKS patch 3TER AN4:11  
 REMARKS patch 5TER AN4:11  
 REMARKS patch DEO5 AN4:11  
 REMARKS patch 3TER AN5:13  
 REMARKS patch 5TER AN5:13  
 REMARKS patch DEO5 AN5:13  
 REMARKS patch 3TER BN1:16  
 REMARKS patch 5TER BN1:1  
 REMARKS patch DEO5 BN1:1  
 REMARKS patch DEOX BN1:2  
 REMARKS patch DEOX BN1:3  
 REMARKS patch DEOX BN1:4  
 REMARKS patch DEOX BN1:5  
 REMARKS patch DEOX BN1:6  
 REMARKS patch DEOX BN1:7  
 REMARKS patch DEOX BN1:8  
 REMARKS patch DEOX BN1:9  
 REMARKS patch DEOX BN1:10  
 REMARKS patch DEOX BN1:11  
 REMARKS patch DEOX BN1:12  
 REMARKS patch DEOX BN1:13  
 REMARKS patch DEOX BN1:14  
 REMARKS patch DEOX BN1:15  
 REMARKS patch DEOX BN1:16  

     660 !NATOM
       1 AN1  2    CYT  H5T  HN5    0.430000        1.0080           0
       2 AN1  2    CYT  O5'  ON5   -0.660000       15.9994           0
       3 AN1  2    CYT  C5'  CN8B   0.050000       12.0110           0
       4 AN1  2    CYT  H5'  HN8    0.090000        1.0080           0
       5 AN1  2    CYT  H5'' HN8    0.090000        1.0080           0
       6 AN1  2    CYT  C4'  CN7    0.160000       12.0110           0
       7 AN1  2    CYT  H4'  HN7    0.090000        1.0080           0
       8 AN1  2    CYT  O4'  ON6   -0.500000       15.9994           0
       9 AN1  2    CYT  C1'  CN7B   0.160000       12.0110           0
      10 AN1  2    CYT  H1'  HN7    0.090000        1.0080           0
      11 AN1  2    CYT  N1   NN2   -0.130000       14.0070           0
      12 AN1  2    CYT  C6   CN3    0.050000       12.0110           0
      13 AN1  2    CYT  H6   HN3    0.170000        1.0080           0
      14 AN1  2    CYT  C5   CN3   -0.130000       12.0110           0
      15 AN1  2    CYT  H5   HN3    0.070000        1.0080           0
      16 AN1  2    CYT  C2   CN1    0.520000       12.0110           0
      17 AN1  2    CYT  O2   ON1C  -0.490000       15.9994           0
      18 AN1  2    CYT  N3   NN3   -0.660000       14.0070           0
      19 AN1  2    CYT  C4   CN2    0.650000       12.0110           0
      20 AN1  2    CYT  N4   NN1   -0.750000       14.0070           0
      21 AN1  2    CYT  H41  HN1    0.370000        1.0080           0
      22 AN1  2    CYT  H42  HN1    0.330000        1.0080           0
      23 AN1  2    CYT  C2'  CN8   -0.180000       12.0110           0
      24 AN1  2    CYT  H2'' HN8    0.090000        1.0080           0
      25 AN1  2    CYT  H2'  HN8    0.090000        1.0080           0
      26 AN1  2    CYT  C3'  CN7    0.140000       12.0110           0
      27 AN1  2    CYT  H3'  HN7    0.090000        1.0080           0
      28 AN1  2    CYT  O3'  ON5   -0.660000       15.9994           0
      29 AN1  2    CYT  H3T  HN5    0.430000        1.0080           0
      30 AN2  7    ADE  H5T  HN5    0.430000        1.0080           0
      31 AN2  7    ADE  O5'  ON5   -0.660000       15.9994           0
      32 AN2  7    ADE  C5'  CN8B   0.050000       12.0110           0
      33 AN2  7    ADE  H5'  HN8    0.090000        1.0080           0
      34 AN2  7    ADE  H5'' HN8    0.090000        1.0080           0
      35 AN2  7    ADE  C4'  CN7    0.160000       12.0110           0
      36 AN2  7    ADE  H4'  HN7    0.090000        1.0080           0
      37 AN2  7    ADE  O4'  ON6   -0.500000       15.9994           0
      38 AN2  7    ADE  C1'  CN7B   0.160000       12.0110           0
      39 AN2  7    ADE  H1'  HN7    0.090000        1.0080           0
      40 AN2  7    ADE  N9   NN2   -0.050000       14.0070           0
      41 AN2  7    ADE  C5   CN5    0.280000       12.0110           0
      42 AN2  7    ADE  N7   NN4   -0.710000       14.0070           0
      43 AN2  7    ADE  C8   CN4    0.340000       12.0110           0
      44 AN2  7    ADE  H8   HN3    0.120000        1.0080           0
      45 AN2  7    ADE  N1   NN3A  -0.740000       14.0070           0
      46 AN2  7    ADE  C2   CN4    0.500000       12.0110           0
      47 AN2  7    ADE  H2   HN3    0.130000        1.0080           0
      48 AN2  7    ADE  N3   NN3A  -0.750000       14.0070           0
      49 AN2  7    ADE  C4   CN5    0.430000       12.0110           0
      50 AN2  7    ADE  C6   CN2    0.460000       12.0110           0
      51 AN2  7    ADE  N6   NN1   -0.770000       14.0070           0
      52 AN2  7    ADE  H61  HN1    0.380000        1.0080           0
      53 AN2  7    ADE  H62  HN1    0.380000        1.0080           0
      54 AN2  7    ADE  C2'  CN8   -0.180000       12.0110           0
      55 AN2  7    ADE  H2'' HN8    0.090000        1.0080           0
      56 AN2  7    ADE  H2'  HN8    0.090000        1.0080           0
      57 AN2  7    ADE  C3'  CN7    0.140000       12.0110           0
      58 AN2  7    ADE  H3'  HN7    0.090000        1.0080           0
      59 AN2  7    ADE  O3'  ON5   -0.660000       15.9994           0
      60 AN2  7    ADE  H3T  HN5    0.430000        1.0080           0
      61 AN3  9    GUA  H5T  HN5    0.430000        1.0080           0
      62 AN3  9    GUA  O5'  ON5   -0.660000       15.9994           0
      63 AN3  9    GUA  C5'  CN8B   0.050000       12.0110           0
      64 AN3  9    GUA  H5'  HN8    0.090000        1.0080           0
      65 AN3  9    GUA  H5'' HN8    0.090000        1.0080           0
      66 AN3  9    GUA  C4'  CN7    0.160000       12.0110           0
      67 AN3  9    GUA  H4'  HN7    0.090000        1.0080           0
      68 AN3  9    GUA  O4'  ON6   -0.500000       15.9994           0
      69 AN3  9    GUA  C1'  CN7B   0.160000       12.0110           0
      70 AN3  9    GUA  H1'  HN7    0.090000        1.0080           0
      71 AN3  9    GUA  N9   NN2B  -0.020000       14.0070           0
      72 AN3  9    GUA  C4   CN5    0.260000       12.0110           0
      73 AN3  9    GUA  N2   NN1   -0.680000       14.0070           0
      74 AN3  9    GUA  H21  HN1    0.320000        1.0080           0
      75 AN3  9    GUA  H22  HN1    0.350000        1.0080           0
      76 AN3  9    GUA  N3   NN3G  -0.740000       14.0070           0
      77 AN3  9    GUA  C2   CN2    0.750000       12.0110           0
      78 AN3  9    GUA  N1   NN2G  -0.340000       14.0070           0
      79 AN3  9    GUA  H1   HN2    0.260000        1.0080           0
      80 AN3  9    GUA  C6   CN1    0.540000       12.0110           0
      81 AN3  9    GUA  O6   ON1   -0.510000       15.9994           0
      82 AN3  9    GUA  C5   CN5G   0.000000       12.0110           0
      83 AN3  9    GUA  N7   NN4   -0.600000       14.0070           0
      84 AN3  9    GUA  C8   CN4    0.250000       12.0110           0
      85 AN3  9    GUA  H8   HN3    0.160000        1.0080           0
      86 AN3  9    GUA  C2'  CN8   -0.180000       12.0110           0
      87 AN3  9    GUA  H2'' HN8    0.090000        1.0080           0
      88 AN3  9    GUA  H2'  HN8    0.090000        1.0080           0
      89 AN3  9    GUA  C3'  CN7    0.140000       12.0110           0
      90 AN3  9    GUA  H3'  HN7    0.090000        1.0080           0
      91 AN3  9    GUA  O3'  ON5   -0.660000       15.9994           0
      92 AN3  9    GUA  H3T  HN5    0.430000        1.0080           0
      93 AN4  11   THY  H5T  HN5    0.430000        1.0080           0
      94 AN4  11   THY  O5'  ON5   -0.660000       15.9994           0
      95 AN4  11   THY  C5'  CN8B   0.050000       12.0110           0
      96 AN4  11   THY  H5'  HN8    0.090000        1.0080           0
      97 AN4  11   THY  H5'' HN8    0.090000        1.0080           0
      98 AN4  11   THY  C4'  CN7    0.160000       12.0110           0
      99 AN4  11   THY  H4'  HN7    0.090000        1.0080           0
     100 AN4  11   THY  O4'  ON6   -0.500000       15.9994           0
     101 AN4  11   THY  C1'  CN7B   0.160000       12.0110           0
     102 AN4  11   THY  H1'  HN7    0.090000        1.0080           0
     103 AN4  11   THY  N1   NN2B  -0.340000       14.0070           0
     104 AN4  11   THY  C6   CN3    0.170000       12.0110           0
     105 AN4  11   THY  H6   HN3    0.170000        1.0080           0
     106 AN4  11   THY  C2   CN1T   0.510000       12.0110           0
     107 AN4  11   THY  O2   ON1   -0.410000       15.9994           0
     108 AN4  11   THY  N3   NN2U  -0.460000       14.0070           0
     109 AN4  11   THY  H3   HN2    0.360000        1.0080           0
     110 AN4  11   THY  C4   CN1    0.500000       12.0110           0
     111 AN4  11   THY  O4   ON1   -0.450000       15.9994           0
     112 AN4  11   THY  C5   CN3T  -0.150000       12.0110           0
     113 AN4  11   THY  C5M  CN9   -0.110000       12.0110           0
     114 AN4  11   THY  H51  HN9    0.070000        1.0080           0
     115 AN4  11   THY  H52  HN9    0.070000        1.0080           0
     116 AN4  11   THY  H53  HN9    0.070000        1.0080           0
     117 AN4  11   THY  C2'  CN8   -0.180000       12.0110           0
     118 AN4  11   THY  H2'' HN8    0.090000        1.0080           0
     119 AN4  11   THY  H2'  HN8    0.090000        1.0080           0
     120 AN4  11   THY  C3'  CN7    0.140000       12.0110           0
     121 AN4  11   THY  H3'  HN7    0.090000        1.0080           0
     122 AN4  11   THY  O3'  ON5   -0.660000       15.9994           0
     123 AN4  11   THY  H3T  HN5    0.430000        1.0080           0
     124 AN5  13   CYT  H5T  HN5    0.430000        1.0080           0
     125 AN5  13   CYT  O5'  ON5   -0.660000       15.9994           0
     126 AN5  13   CYT  C5'  CN8B   0.050000       12.0110           0
     127 AN5  13   CYT  H5'  HN8    0.090000        1.0080           0
     128 AN5  13   CYT  H5'' HN8    0.090000        1.0080           0
     129 AN5  13   CYT  C4'  CN7    0.160000       12.0110           0
     130 AN5  13   CYT  H4'  HN7    0.090000        1.0080           0
     131 AN5  13   CYT  O4'  ON6   -0.500000       15.9994           0
     132 AN5  13   CYT  C1'  CN7B   0.160000       12.0110           0
     133 AN5  13   CYT  H1'  HN7    0.090000        1.0080           0
     134 AN5  13   CYT  N1   NN2   -0.130000       14.0070           0
     135 AN5  13   CYT  C6   CN3    0.050000       12.0110           0
     136 AN5  13   CYT  H6   HN3    0.170000        1.0080           0
     137 AN5  13   CYT  C5   CN3   -0.130000       12.0110           0
     138 AN5  13   CYT  H5   HN3    0.070000        1.0080           0
     139 AN5  13   CYT  C2   CN1    0.520000       12.0110           0
     140 AN5  13   CYT  O2   ON1C  -0.490000       15.9994           0
     141 AN5  13   CYT  N3   NN3   -0.660000       14.0070           0
     142 AN5  13   CYT  C4   CN2    0.650000       12.0110           0
     143 AN5  13   CYT  N4   NN1   -0.750000       14.0070           0
     144 AN5  13   CYT  H41  HN1    0.370000        1.0080           0
     145 AN5  13   CYT  H42  HN1    0.330000        1.0080           0
     146 AN5  13   CYT  C2'  CN8   -0.180000       12.0110           0
     147 AN5  13   CYT  H2'' HN8    0.090000        1.0080           0
     148 AN5  13   CYT  H2'  HN8    0.090000        1.0080           0
     149 AN5  13   CYT  C3'  CN7    0.140000       12.0110           0
     150 AN5  13   CYT  H3'  HN7    0.090000        1.0080           0
     151 AN5  13   CYT  O3'  ON5   -0.660000       15.9994           0
     152 AN5  13   CYT  H3T  HN5    0.430000        1.0080           0
     153 BN1  1    GUA  H5T  HN5    0.430000        1.0080           0
     154 BN1  1    GUA  O5'  ON5   -0.660000       15.9994           0
     155 BN1  1    GUA  C5'  CN8B   0.050000       12.0110           0
     156 BN1  1    GUA  H5'  HN8    0.090000        1.0080           0
     157 BN1  1    GUA  H5'' HN8    0.090000        1.0080           0
     158 BN1  1    GUA  C4'  CN7    0.160000       12.0110           0
     159 BN1  1    GUA  H4'  HN7    0.090000        1.0080           0
     160 BN1  1    GUA  O4'  ON6   -0.500000       15.9994           0
     161 BN1  1    GUA  C1'  CN7B   0.160000       12.0110           0
     162 BN1  1    GUA  H1'  HN7    0.090000        1.0080           0
     163 BN1  1    GUA  N9   NN2B  -0.020000       14.0070           0
     164 BN1  1    GUA  C4   CN5    0.260000       12.0110           0
     165 BN1  1    GUA  N2   NN1   -0.680000       14.0070           0
     166 BN1  1    GUA  H21  HN1    0.320000        1.0080           0
     167 BN1  1    GUA  H22  HN1    0.350000        1.0080           0
     168 BN1  1    GUA  N3   NN3G  -0.740000       14.0070           0
     169 BN1  1    GUA  C2   CN2    0.750000       12.0110           0
     170 BN1  1    GUA  N1   NN2G  -0.340000       14.0070           0
     171 BN1  1    GUA  H1   HN2    0.260000        1.0080           0
     172 BN1  1    GUA  C6   CN1    0.540000       12.0110           0
     173 BN1  1    GUA  O6   ON1   -0.510000       15.9994           0
     174 BN1  1    GUA  C5   CN5G   0.000000       12.0110           0
     175 BN1  1    GUA  N7   NN4   -0.600000       14.0070           0
     176 BN1  1    GUA  C8   CN4    0.250000       12.0110           0
     177 BN1  1    GUA  H8   HN3    0.160000        1.0080           0
     178 BN1  1    GUA  C2'  CN8   -0.180000       12.0110           0
     179 BN1  1    GUA  H2'' HN8    0.090000        1.0080           0
     180 BN1  1    GUA  H2'  HN8    0.090000        1.0080           0
     181 BN1  1    GUA  C3'  CN7    0.010000       12.0110           0
     182 BN1  1    GUA  H3'  HN7    0.090000        1.0080           0
     183 BN1  1    GUA  O3'  ON2   -0.570000       15.9994           0
     184 BN1  2    CYT  P    P2     1.500000       30.9740           0
     185 BN1  2    CYT  O1P  ON3   -0.780000       15.9994           0
     186 BN1  2    CYT  O2P  ON3   -0.780000       15.9994           0
     187 BN1  2    CYT  O5'  ON2   -0.570000       15.9994           0
     188 BN1  2    CYT  C5'  CN8B  -0.080000       12.0110           0
     189 BN1  2    CYT  H5'  HN8    0.090000        1.0080           0
     190 BN1  2    CYT  H5'' HN8    0.090000        1.0080           0
     191 BN1  2    CYT  C4'  CN7    0.160000       12.0110           0
     192 BN1  2    CYT  H4'  HN7    0.090000        1.0080           0
     193 BN1  2    CYT  O4'  ON6   -0.500000       15.9994           0
     194 BN1  2    CYT  C1'  CN7B   0.160000       12.0110           0
     195 BN1  2    CYT  H1'  HN7    0.090000        1.0080           0
     196 BN1  2    CYT  N1   NN2   -0.130000       14.0070           0
     197 BN1  2    CYT  C6   CN3    0.050000       12.0110           0
     198 BN1  2    CYT  H6   HN3    0.170000        1.0080           0
     199 BN1  2    CYT  C5   CN3   -0.130000       12.0110           0
     200 BN1  2    CYT  H5   HN3    0.070000        1.0080           0
     201 BN1  2    CYT  C2   CN1    0.520000       12.0110           0
     202 BN1  2    CYT  O2   ON1C  -0.490000       15.9994           0
     203 BN1  2    CYT  N3   NN3   -0.660000       14.0070           0
     204 BN1  2    CYT  C4   CN2    0.650000       12.0110           0
     205 BN1  2    CYT  N4   NN1   -0.750000       14.0070           0
     206 BN1  2    CYT  H41  HN1    0.370000        1.0080           0
     207 BN1  2    CYT  H42  HN1    0.330000        1.0080           0
     208 BN1  2    CYT  C2'  CN8   -0.180000       12.0110           0
     209 BN1  2    CYT  H2'' HN8    0.090000        1.0080           0
     210 BN1  2    CYT  H2'  HN8    0.090000        1.0080           0
     211 BN1  2    CYT  C3'  CN7    0.010000       12.0110           0
     212 BN1  2    CYT  H3'  HN7    0.090000        1.0080           0
     213 BN1  2    CYT  O3'  ON2   -0.570000       15.9994           0
     214 BN1  3    THY  P    P2     1.500000       30.9740           0
     215 BN1  3    THY  O1P  ON3   -0.780000       15.9994           0
     216 BN1  3    THY  O2P  ON3   -0.780000       15.9994           0
     217 BN1  3    THY  O5'  ON2   -0.570000       15.9994           0
     218 BN1  3    THY  C5'  CN8B  -0.080000       12.0110           0
     219 BN1  3    THY  H5'  HN8    0.090000        1.0080           0
     220 BN1  3    THY  H5'' HN8    0.090000        1.0080           0
     221 BN1  3    THY  C4'  CN7    0.160000       12.0110           0
     222 BN1  3    THY  H4'  HN7    0.090000        1.0080           0
     223 BN1  3    THY  O4'  ON6   -0.500000       15.9994           0
     224 BN1  3    THY  C1'  CN7B   0.160000       12.0110           0
     225 BN1  3    THY  H1'  HN7    0.090000        1.0080           0
     226 BN1  3    THY  N1   NN2B  -0.340000       14.0070           0
     227 BN1  3    THY  C6   CN3    0.170000       12.0110           0
     228 BN1  3    THY  H6   HN3    0.170000        1.0080           0
     229 BN1  3    THY  C2   CN1T   0.510000       12.0110           0
     230 BN1  3    THY  O2   ON1   -0.410000       15.9994           0
     231 BN1  3    THY  N3   NN2U  -0.460000       14.0070           0
     232 BN1  3    THY  H3   HN2    0.360000        1.0080           0
     233 BN1  3    THY  C4   CN1    0.500000       12.0110           0
     234 BN1  3    THY  O4   ON1   -0.450000       15.9994           0
     235 BN1  3    THY  C5   CN3T  -0.150000       12.0110           0
     236 BN1  3    THY  C5M  CN9   -0.110000       12.0110           0
     237 BN1  3    THY  H51  HN9    0.070000        1.0080           0
     238 BN1  3    THY  H52  HN9    0.070000        1.0080           0
     239 BN1  3    THY  H53  HN9    0.070000        1.0080           0
     240 BN1  3    THY  C2'  CN8   -0.180000       12.0110           0
     241 BN1  3    THY  H2'' HN8    0.090000        1.0080           0
     242 BN1  3    THY  H2'  HN8    0.090000        1.0080           0
     243 BN1  3    THY  C3'  CN7    0.010000       12.0110           0
     244 BN1  3    THY  H3'  HN7    0.090000        1.0080           0
     245 BN1  3    THY  O3'  ON2   -0.570000       15.9994           0
     246 BN1  4    GUA  P    P2     1.500000       30.9740           0
     247 BN1  4    GUA  O1P  ON3   -0.780000       15.9994           0
     248 BN1  4    GUA  O2P  ON3   -0.780000       15.9994           0
     249 BN1  4    GUA  O5'  ON2   -0.570000       15.9994           0
     250 BN1  4    GUA  C5'  CN8B  -0.080000       12.0110           0
     251 BN1  4    GUA  H5'  HN8    0.090000        1.0080           0
     252 BN1  4    GUA  H5'' HN8    0.090000        1.0080           0
     253 BN1  4    GUA  C4'  CN7    0.160000       12.0110           0
     254 BN1  4    GUA  H4'  HN7    0.090000        1.0080           0
     255 BN1  4    GUA  O4'  ON6   -0.500000       15.9994           0
     256 BN1  4    GUA  C1'  CN7B   0.160000       12.0110           0
     257 BN1  4    GUA  H1'  HN7    0.090000        1.0080           0
     258 BN1  4    GUA  N9   NN2B  -0.020000       14.0070           0
     259 BN1  4    GUA  C4   CN5    0.260000       12.0110           0
     260 BN1  4    GUA  N2   NN1   -0.680000       14.0070           0
     261 BN1  4    GUA  H21  HN1    0.320000        1.0080           0
     262 BN1  4    GUA  H22  HN1    0.350000        1.0080           0
     263 BN1  4    GUA  N3   NN3G  -0.740000       14.0070           0
     264 BN1  4    GUA  C2   CN2    0.750000       12.0110           0
     265 BN1  4    GUA  N1   NN2G  -0.340000       14.0070           0
     266 BN1  4    GUA  H1   HN2    0.260000        1.0080           0
     267 BN1  4    GUA  C6   CN1    0.540000       12.0110           0
     268 BN1  4    GUA  O6   ON1   -0.510000       15.9994           0
     269 BN1  4    GUA  C5   CN5G   0.000000       12.0110           0
     270 BN1  4    GUA  N7   NN4   -0.600000       14.0070           0
     271 BN1  4    GUA  C8   CN4    0.250000       12.0110           0
     272 BN1  4    GUA  H8   HN3    0.160000        1.0080           0
     273 BN1  4    GUA  C2'  CN8   -0.180000       12.0110           0
     274 BN1  4    GUA  H2'' HN8    0.090000        1.0080           0
     275 BN1  4    GUA  H2'  HN8    0.090000        1.0080           0
     276 BN1  4    GUA  C3'  CN7    0.010000       12.0110           0
     277 BN1  4    GUA  H3'  HN7    0.090000        1.0080           0
     278 BN1  4    GUA  O3'  ON2   -0.570000       15.9994           0
     279 BN1  5    CYT  P    P2     1.500000       30.9740           0
     280 BN1  5    CYT  O1P  ON3   -0.780000       15.9994           0
     281 BN1  5    CYT  O2P  ON3   -0.780000       15.9994           0
     282 BN1  5    CYT  O5'  ON2   -0.570000       15.9994           0
     283 BN1  5    CYT  C5'  CN8B  -0.080000       12.0110           0
     284 BN1  5    CYT  H5'  HN8    0.090000        1.0080           0
     285 BN1  5    CYT  H5'' HN8    0.090000        1.0080           0
     286 BN1  5    CYT  C4'  CN7    0.160000       12.0110           0
     287 BN1  5    CYT  H4'  HN7    0.090000        1.0080           0
     288 BN1  5    CYT  O4'  ON6   -0.500000       15.9994           0
     289 BN1  5    CYT  C1'  CN7B   0.160000       12.0110           0
     290 BN1  5    CYT  H1'  HN7    0.090000        1.0080           0
     291 BN1  5    CYT  N1   NN2   -0.130000       14.0070           0
     292 BN1  5    CYT  C6   CN3    0.050000       12.0110           0
     293 BN1  5    CYT  H6   HN3    0.170000        1.0080           0
     294 BN1  5    CYT  C5   CN3   -0.130000       12.0110           0
     295 BN1  5    CYT  H5   HN3    0.070000        1.0080           0
     296 BN1  5    CYT  C2   CN1    0.520000       12.0110           0
     297 BN1  5    CYT  O2   ON1C  -0.490000       15.9994           0
     298 BN1  5    CYT  N3   NN3   -0.660000       14.0070           0
     299 BN1  5    CYT  C4   CN2    0.650000       12.0110           0
     300 BN1  5    CYT  N4   NN1   -0.750000       14.0070           0
     301 BN1  5    CYT  H41  HN1    0.370000        1.0080           0
     302 BN1  5    CYT  H42  HN1    0.330000        1.0080           0
     303 BN1  5    CYT  C2'  CN8   -0.180000       12.0110           0
     304 BN1  5    CYT  H2'' HN8    0.090000        1.0080           0
     305 BN1  5    CYT  H2'  HN8    0.090000        1.0080           0
     306 BN1  5    CYT  C3'  CN7    0.010000       12.0110           0
     307 BN1  5    CYT  H3'  HN7    0.090000        1.0080           0
     308 BN1  5    CYT  O3'  ON2   -0.570000       15.9994           0
     309 BN1  6    ADE  P    P2     1.500000       30.9740           0
     310 BN1  6    ADE  O1P  ON3   -0.780000       15.9994           0
     311 BN1  6    ADE  O2P  ON3   -0.780000       15.9994           0
     312 BN1  6    ADE  O5'  ON2   -0.570000       15.9994           0
     313 BN1  6    ADE  C5'  CN8B  -0.080000       12.0110           0
     314 BN1  6    ADE  H5'  HN8    0.090000        1.0080           0
     315 BN1  6    ADE  H5'' HN8    0.090000        1.0080           0
     316 BN1  6    ADE  C4'  CN7    0.160000       12.0110           0
     317 BN1  6    ADE  H4'  HN7    0.090000        1.0080           0
     318 BN1  6    ADE  O4'  ON6   -0.500000       15.9994           0
     319 BN1  6    ADE  C1'  CN7B   0.160000       12.0110           0
     320 BN1  6    ADE  H1'  HN7    0.090000        1.0080           0
     321 BN1  6    ADE  N9   NN2   -0.050000       14.0070           0
     322 BN1  6    ADE  C5   CN5    0.280000       12.0110           0
     323 BN1  6    ADE  N7   NN4   -0.710000       14.0070           0
     324 BN1  6    ADE  C8   CN4    0.340000       12.0110           0
     325 BN1  6    ADE  H8   HN3    0.120000        1.0080           0
     326 BN1  6    ADE  N1   NN3A  -0.740000       14.0070           0
     327 BN1  6    ADE  C2   CN4    0.500000       12.0110           0
     328 BN1  6    ADE  H2   HN3    0.130000        1.0080           0
     329 BN1  6    ADE  N3   NN3A  -0.750000       14.0070           0
     330 BN1  6    ADE  C4   CN5    0.430000       12.0110           0
     331 BN1  6    ADE  C6   CN2    0.460000       12.0110           0
     332 BN1  6    ADE  N6   NN1   -0.770000       14.0070           0
     333 BN1  6    ADE  H61  HN1    0.380000        1.0080           0
     334 BN1  6    ADE  H62  HN1    0.380000        1.0080           0
     335 BN1  6    ADE  C2'  CN8   -0.180000       12.0110           0
     336 BN1  6    ADE  H2'' HN8    0.090000        1.0080           0
     337 BN1  6    ADE  H2'  HN8    0.090000        1.0080           0
     338 BN1  6    ADE  C3'  CN7    0.010000       12.0110           0
     339 BN1  6    ADE  H3'  HN7    0.090000        1.0080           0
     340 BN1  6    ADE  O3'  ON2   -0.570000       15.9994           0
     341 BN1  7    ADE  P    P2     1.500000       30.9740           0
     342 BN1  7    ADE  O1P  ON3   -0.780000       15.9994           0
     343 BN1  7    ADE  O2P  ON3   -0.780000       15.9994           0
     344 BN1  7    ADE  O5'  ON2   -0.570000       15.9994           0
     345 BN1  7    ADE  C5'  CN8B  -0.080000       12.0110           0
     346 BN1  7    ADE  H5'  HN8    0.090000        1.0080           0
     347 BN1  7    ADE  H5'' HN8    0.090000        1.0080           0
     348 BN1  7    ADE  C4'  CN7    0.160000       12.0110           0
     349 BN1  7    ADE  H4'  HN7    0.090000        1.0080           0
     350 BN1  7    ADE  O4'  ON6   -0.500000       15.9994           0
     351 BN1  7    ADE  C1'  CN7B   0.160000       12.0110           0
     352 BN1  7    ADE  H1'  HN7    0.090000        1.0080           0
     353 BN1  7    ADE  N9   NN2   -0.050000       14.0070           0
     354 BN1  7    ADE  C5   CN5    0.280000       12.0110           0
     355 BN1  7    ADE  N7   NN4   -0.710000       14.0070           0
     356 BN1  7    ADE  C8   CN4    0.340000       12.0110           0
     357 BN1  7    ADE  H8   HN3    0.120000        1.0080           0
     358 BN1  7    ADE  N1   NN3A  -0.740000       14.0070           0
     359 BN1  7    ADE  C2   CN4    0.500000       12.0110           0
     360 BN1  7    ADE  H2   HN3    0.130000        1.0080           0
     361 BN1  7    ADE  N3   NN3A  -0.750000       14.0070           0
     362 BN1  7    ADE  C4   CN5    0.430000       12.0110           0
     363 BN1  7    ADE  C6   CN2    0.460000       12.0110           0
     364 BN1  7    ADE  N6   NN1   -0.770000       14.0070           0
     365 BN1  7    ADE  H61  HN1    0.380000        1.0080           0
     366 BN1  7    ADE  H62  HN1    0.380000        1.0080           0
     367 BN1  7    ADE  C2'  CN8   -0.180000       12.0110           0
     368 BN1  7    ADE  H2'' HN8    0.090000        1.0080           0
     369 BN1  7    ADE  H2'  HN8    0.090000        1.0080           0
     370 BN1  7    ADE  C3'  CN7    0.010000       12.0110           0
     371 BN1  7    ADE  H3'  HN7    0.090000        1.0080           0
     372 BN1  7    ADE  O3'  ON2   -0.570000       15.9994           0
     373 BN1  8    CYT  P    P2     1.500000       30.9740           0
     374 BN1  8    CYT  O1P  ON3   -0.780000       15.9994           0
     375 BN1  8    CYT  O2P  ON3   -0.780000       15.9994           0
     376 BN1  8    CYT  O5'  ON2   -0.570000       15.9994           0
     377 BN1  8    CYT  C5'  CN8B  -0.080000       12.0110           0
     378 BN1  8    CYT  H5'  HN8    0.090000        1.0080           0
     379 BN1  8    CYT  H5'' HN8    0.090000        1.0080           0
     380 BN1  8    CYT  C4'  CN7    0.160000       12.0110           0
     381 BN1  8    CYT  H4'  HN7    0.090000        1.0080           0
     382 BN1  8    CYT  O4'  ON6   -0.500000       15.9994           0
     383 BN1  8    CYT  C1'  CN7B   0.160000       12.0110           0
     384 BN1  8    CYT  H1'  HN7    0.090000        1.0080           0
     385 BN1  8    CYT  N1   NN2   -0.130000       14.0070           0
     386 BN1  8    CYT  C6   CN3    0.050000       12.0110           0
     387 BN1  8    CYT  H6   HN3    0.170000        1.0080           0
     388 BN1  8    CYT  C5   CN3   -0.130000       12.0110           0
     389 BN1  8    CYT  H5   HN3    0.070000        1.0080           0
     390 BN1  8    CYT  C2   CN1    0.520000       12.0110           0
     391 BN1  8    CYT  O2   ON1C  -0.490000       15.9994           0
     392 BN1  8    CYT  N3   NN3   -0.660000       14.0070           0
     393 BN1  8    CYT  C4   CN2    0.650000       12.0110           0
     394 BN1  8    CYT  N4   NN1   -0.750000       14.0070           0
     395 BN1  8    CYT  H41  HN1    0.370000        1.0080           0
     396 BN1  8    CYT  H42  HN1    0.330000        1.0080           0
     397 BN1  8    CYT  C2'  CN8   -0.180000       12.0110           0
     398 BN1  8    CYT  H2'' HN8    0.090000        1.0080           0
     399 BN1  8    CYT  H2'  HN8    0.090000        1.0080           0
     400 BN1  8    CYT  C3'  CN7    0.010000       12.0110           0
     401 BN1  8    CYT  H3'  HN7    0.090000        1.0080           0
     402 BN1  8    CYT  O3'  ON2   -0.570000       15.9994           0
     403 BN1  9    CYT  P    P2     1.500000       30.9740           0
     404 BN1  9    CYT  O1P  ON3   -0.780000       15.9994           0
     405 BN1  9    CYT  O2P  ON3   -0.780000       15.9994           0
     406 BN1  9    CYT  O5'  ON2   -0.570000       15.9994           0
     407 BN1  9    CYT  C5'  CN8B  -0.080000       12.0110           0
     408 BN1  9    CYT  H5'  HN8    0.090000        1.0080           0
     409 BN1  9    CYT  H5'' HN8    0.090000        1.0080           0
     410 BN1  9    CYT  C4'  CN7    0.160000       12.0110           0
     411 BN1  9    CYT  H4'  HN7    0.090000        1.0080           0
     412 BN1  9    CYT  O4'  ON6   -0.500000       15.9994           0
     413 BN1  9    CYT  C1'  CN7B   0.160000       12.0110           0
     414 BN1  9    CYT  H1'  HN7    0.090000        1.0080           0
     415 BN1  9    CYT  N1   NN2   -0.130000       14.0070           0
     416 BN1  9    CYT  C6   CN3    0.050000       12.0110           0
     417 BN1  9    CYT  H6   HN3    0.170000        1.0080           0
     418 BN1  9    CYT  C5   CN3   -0.130000       12.0110           0
     419 BN1  9    CYT  H5   HN3    0.070000        1.0080           0
     420 BN1  9    CYT  C2   CN1    0.520000       12.0110           0
     421 BN1  9    CYT  O2   ON1C  -0.490000       15.9994           0
     422 BN1  9    CYT  N3   NN3   -0.660000       14.0070           0
     423 BN1  9    CYT  C4   CN2    0.650000       12.0110           0
     424 BN1  9    CYT  N4   NN1   -0.750000       14.0070           0
     425 BN1  9    CYT  H41  HN1    0.370000        1.0080           0
     426 BN1  9    CYT  H42  HN1    0.330000        1.0080           0
     427 BN1  9    CYT  C2'  CN8   -0.180000       12.0110           0
     428 BN1  9    CYT  H2'' HN8    0.090000        1.0080           0
     429 BN1  9    CYT  H2'  HN8    0.090000        1.0080           0
     430 BN1  9    CYT  C3'  CN7    0.010000       12.0110           0
     431 BN1  9    CYT  H3'  HN7    0.090000        1.0080           0
     432 BN1  9    CYT  O3'  ON2   -0.570000       15.9994           0
     433 BN1  10   THY  P    P2     1.500000       30.9740           0
     434 BN1  10   THY  O1P  ON3   -0.780000       15.9994           0
     435 BN1  10   THY  O2P  ON3   -0.780000       15.9994           0
     436 BN1  10   THY  O5'  ON2   -0.570000       15.9994           0
     437 BN1  10   THY  C5'  CN8B  -0.080000       12.0110           0
     438 BN1  10   THY  H5'  HN8    0.090000        1.0080           0
     439 BN1  10   THY  H5'' HN8    0.090000        1.0080           0
     440 BN1  10   THY  C4'  CN7    0.160000       12.0110           0
     441 BN1  10   THY  H4'  HN7    0.090000        1.0080           0
     442 BN1  10   THY  O4'  ON6   -0.500000       15.9994           0
     443 BN1  10   THY  C1'  CN7B   0.160000       12.0110           0
     444 BN1  10   THY  H1'  HN7    0.090000        1.0080           0
     445 BN1  10   THY  N1   NN2B  -0.340000       14.0070           0
     446 BN1  10   THY  C6   CN3    0.170000       12.0110           0
     447 BN1  10   THY  H6   HN3    0.170000        1.0080           0
     448 BN1  10   THY  C2   CN1T   0.510000       12.0110           0
     449 BN1  10   THY  O2   ON1   -0.410000       15.9994           0
     450 BN1  10   THY  N3   NN2U  -0.460000       14.0070           0
     451 BN1  10   THY  H3   HN2    0.360000        1.0080           0
     452 BN1  10   THY  C4   CN1    0.500000       12.0110           0
     453 BN1  10   THY  O4   ON1   -0.450000       15.9994           0
     454 BN1  10   THY  C5   CN3T  -0.150000       12.0110           0
     455 BN1  10   THY  C5M  CN9   -0.110000       12.0110           0
     456 BN1  10   THY  H51  HN9    0.070000        1.0080           0
     457 BN1  10   THY  H52  HN9    0.070000        1.0080           0
     458 BN1  10   THY  H53  HN9    0.070000        1.0080           0
     459 BN1  10   THY  C2'  CN8   -0.180000       12.0110           0
     460 BN1  10   THY  H2'' HN8    0.090000        1.0080           0
     461 BN1  10   THY  H2'  HN8    0.090000        1.0080           0
     462 BN1  10   THY  C3'  CN7    0.010000       12.0110           0
     463 BN1  10   THY  H3'  HN7    0.090000        1.0080           0
     464 BN1  10   THY  O3'  ON2   -0.570000       15.9994           0
     465 BN1  11   GUA  P    P2     1.500000       30.9740           0
     466 BN1  11   GUA  O1P  ON3   -0.780000       15.9994           0
     467 BN1  11   GUA  O2P  ON3   -0.780000       15.9994           0
     468 BN1  11   GUA  O5'  ON2   -0.570000       15.9994           0
     469 BN1  11   GUA  C5'  CN8B  -0.080000       12.0110           0
     470 BN1  11   GUA  H5'  HN8    0.090000        1.0080           0
     471 BN1  11   GUA  H5'' HN8    0.090000        1.0080           0
     472 BN1  11   GUA  C4'  CN7    0.160000       12.0110           0
     473 BN1  11   GUA  H4'  HN7    0.090000        1.0080           0
     474 BN1  11   GUA  O4'  ON6   -0.500000       15.9994           0
     475 BN1  11   GUA  C1'  CN7B   0.160000       12.0110           0
     476 BN1  11   GUA  H1'  HN7    0.090000        1.0080           0
     477 BN1  11   GUA  N9   NN2B  -0.020000       14.0070           0
     478 BN1  11   GUA  C4   CN5    0.260000       12.0110           0
     479 BN1  11   GUA  N2   NN1   -0.680000       14.0070           0
     480 BN1  11   GUA  H21  HN1    0.320000        1.0080           0
     481 BN1  11   GUA  H22  HN1    0.350000        1.0080           0
     482 BN1  11   GUA  N3   NN3G  -0.740000       14.0070           0
     483 BN1  11   GUA  C2   CN2    0.750000       12.0110           0
     484 BN1  11   GUA  N1   NN2G  -0.340000       14.0070           0
     485 BN1  11   GUA  H1   HN2    0.260000        1.0080           0
     486 BN1  11   GUA  C6   CN1    0.540000       12.0110           0
     487 BN1  11   GUA  O6   ON1   -0.510000       15.9994           0
     488 BN1  11   GUA  C5   CN5G   0.000000       12.0110           0
     489 BN1  11   GUA  N7   NN4   -0.600000       14.0070           0
     490 BN1  11   GUA  C8   CN4    0.250000       12.0110           0
     491 BN1  11   GUA  H8   HN3    0.160000        1.0080           0
     492 BN1  11   GUA  C2'  CN8   -0.180000       12.0110           0
     493 BN1  11   GUA  H2'' HN8    0.090000        1.0080           0
     494 BN1  11   GUA  H2'  HN8    0.090000        1.0080           0
     495 BN1  11   GUA  C3'  CN7    0.010000       12.0110           0
     496 BN1  11   GUA  H3'  HN7    0.090000        1.0080           0
     497 BN1  11   GUA  O3'  ON2   -0.570000       15.9994           0
     498 BN1  12   THY  P    P2     1.500000       30.9740           0
     499 BN1  12   THY  O1P  ON3   -0.780000       15.9994           0
     500 BN1  12   THY  O2P  ON3   -0.780000       15.9994           0
     501 BN1  12   THY  O5'  ON2   -0.570000       15.9994           0
     502 BN1  12   THY  C5'  CN8B  -0.080000       12.0110           0
     503 BN1  12   THY  H5'  HN8    0.090000        1.0080           0
     504 BN1  12   THY  H5'' HN8    0.090000        1.0080           0
     505 BN1  12   THY  C4'  CN7    0.160000       12.0110           0
     506 BN1  12   THY  H4'  HN7    0.090000        1.0080           0
     507 BN1  12   THY  O4'  ON6   -0.500000       15.9994           0
     508 BN1  12   THY  C1'  CN7B   0.160000       12.0110           0
     509 BN1  12   THY  H1'  HN7    0.090000        1.0080           0
     510 BN1  12   THY  N1   NN2B  -0.340000       14.0070           0
     511 BN1  12   THY  C6   CN3    0.170000       12.0110           0
     512 BN1  12   THY  H6   HN3    0.170000        1.0080           0
     513 BN1  12   THY  C2   CN1T   0.510000       12.0110           0
     514 BN1  12   THY  O2   ON1   -0.410000       15.9994           0
     515 BN1  12   THY  N3   NN2U  -0.460000       14.0070           0
     516 BN1  12   THY  H3   HN2    0.360000        1.0080           0
     517 BN1  12   THY  C4   CN1    0.500000       12.0110           0
     518 BN1  12   THY  O4   ON1   -0.450000       15.9994           0
     519 BN1  12   THY  C5   CN3T  -0.150000       12.0110           0
     520 BN1  12   THY  C5M  CN9   -0.110000       12.0110           0
     521 BN1  12   THY  H51  HN9    0.070000        1.0080           0
     522 BN1  12   THY  H52  HN9    0.070000        1.0080           0
     523 BN1  12   THY  H53  HN9    0.070000        1.0080           0
     524 BN1  12   THY  C2'  CN8   -0.180000       12.0110           0
     525 BN1  12   THY  H2'' HN8    0.090000        1.0080           0
     526 BN1  12   THY  H2'  HN8    0.090000        1.0080           0
     527 BN1  12   THY  C3'  CN7    0.010000       12.0110           0
     528 BN1  12   THY  H3'  HN7    0.090000        1.0080           0
     529 BN1  12   THY  O3'  ON2   -0.570000       15.9994           0
     530 BN1  13   GUA  P    P2     1.500000       30.9740           0
     531 BN1  13   GUA  O1P  ON3   -0.780000       15.9994           0
     532 BN1  13   GUA  O2P  ON3   -0.780000       15.9994           0
     533 BN1  13   GUA  O5'  ON2   -0.570000       15.9994           0
     534 BN1  13   GUA  C5'  CN8B  -0.080000       12.0110           0
     535 BN1  13   GUA  H5'  HN8    0.090000        1.0080           0
     536 BN1  13   GUA  H5'' HN8    0.090000        1.0080           0
     537 BN1  13   GUA  C4'  CN7    0.160000       12.0110           0
     538 BN1  13   GUA  H4'  HN7    0.090000        1.0080           0
     539 BN1  13   GUA  O4'  ON6   -0.500000       15.9994           0
     540 BN1  13   GUA  C1'  CN7B   0.160000       12.0110           0
     541 BN1  13   GUA  H1'  HN7    0.090000        1.0080           0
     542 BN1  13   GUA  N9   NN2B  -0.020000       14.0070           0
     543 BN1  13   GUA  C4   CN5    0.260000       12.0110           0
     544 BN1  13   GUA  N2   NN1   -0.680000       14.0070           0
     545 BN1  13   GUA  H21  HN1    0.320000        1.0080           0
     546 BN1  13   GUA  H22  HN1    0.350000        1.0080           0
     547 BN1  13   GUA  N3   NN3G  -0.740000       14.0070           0
     548 BN1  13   GUA  C2   CN2    0.750000       12.0110           0
     549 BN1  13   GUA  N1   NN2G  -0.340000       14.0070           0
     550 BN1  13   GUA  H1   HN2    0.260000        1.0080           0
     551 BN1  13   GUA  C6   CN1    0.540000       12.0110           0
     552 BN1  13   GUA  O6   ON1   -0.510000       15.9994           0
     553 BN1  13   GUA  C5   CN5G   0.000000       12.0110           0
     554 BN1  13   GUA  N7   NN4   -0.600000       14.0070           0
     555 BN1  13   GUA  C8   CN4    0.250000       12.0110           0
     556 BN1  13   GUA  H8   HN3    0.160000        1.0080           0
     557 BN1  13   GUA  C2'  CN8   -0.180000       12.0110           0
     558 BN1  13   GUA  H2'' HN8    0.090000        1.0080           0
     559 BN1  13   GUA  H2'  HN8    0.090000        1.0080           0
     560 BN1  13   GUA  C3'  CN7    0.010000       12.0110           0
     561 BN1  13   GUA  H3'  HN7    0.090000        1.0080           0
     562 BN1  13   GUA  O3'  ON2   -0.570000       15.9994           0
     563 BN1  14   ADE  P    P2     1.500000       30.9740           0
     564 BN1  14   ADE  O1P  ON3   -0.780000       15.9994           0
     565 BN1  14   ADE  O2P  ON3   -0.780000       15.9994           0
     566 BN1  14   ADE  O5'  ON2   -0.570000       15.9994           0
     567 BN1  14   ADE  C5'  CN8B  -0.080000       12.0110           0
     568 BN1  14   ADE  H5'  HN8    0.090000        1.0080           0
     569 BN1  14   ADE  H5'' HN8    0.090000        1.0080           0
     570 BN1  14   ADE  C4'  CN7    0.160000       12.0110           0
     571 BN1  14   ADE  H4'  HN7    0.090000        1.0080           0
     572 BN1  14   ADE  O4'  ON6   -0.500000       15.9994           0
     573 BN1  14   ADE  C1'  CN7B   0.160000       12.0110           0
     574 BN1  14   ADE  H1'  HN7    0.090000        1.0080           0
     575 BN1  14   ADE  N9   NN2   -0.050000       14.0070           0
     576 BN1  14   ADE  C5   CN5    0.280000       12.0110           0
     577 BN1  14   ADE  N7   NN4   -0.710000       14.0070           0
     578 BN1  14   ADE  C8   CN4    0.340000       12.0110           0
     579 BN1  14   ADE  H8   HN3    0.120000        1.0080           0
     580 BN1  14   ADE  N1   NN3A  -0.740000       14.0070           0
     581 BN1  14   ADE  C2   CN4    0.500000       12.0110           0
     582 BN1  14   ADE  H2   HN3    0.130000        1.0080           0
     583 BN1  14   ADE  N3   NN3A  -0.750000       14.0070           0
     584 BN1  14   ADE  C4   CN5    0.430000       12.0110           0
     585 BN1  14   ADE  C6   CN2    0.460000       12.0110           0
     586 BN1  14   ADE  N6   NN1   -0.770000       14.0070           0
     587 BN1  14   ADE  H61  HN1    0.380000        1.0080           0
     588 BN1  14   ADE  H62  HN1    0.380000        1.0080           0
     589 BN1  14   ADE  C2'  CN8   -0.180000       12.0110           0
     590 BN1  14   ADE  H2'' HN8    0.090000        1.0080           0
     591 BN1  14   ADE  H2'  HN8    0.090000        1.0080           0
     592 BN1  14   ADE  C3'  CN7    0.010000       12.0110           0
     593 BN1  14   ADE  H3'  HN7    0.090000        1.0080           0
     594 BN1  14   ADE  O3'  ON2   -0.570000       15.9994           0
     595 BN1  15   GUA  P    P2     1.500000       30.9740           0
     596 BN1  15   GUA  O1P  ON3   -0.780000       15.9994           0
     597 BN1  15   GUA  O2P  ON3   -0.780000       15.9994           0
     598 BN1  15   GUA  O5'  ON2   -0.570000       15.9994           0
     599 BN1  15   GUA  C5'  CN8B  -0.080000       12.0110           0
     600 BN1  15   GUA  H5'  HN8    0.090000        1.0080           0
     601 BN1  15   GUA  H5'' HN8    0.090000        1.0080           0
     602 BN1  15   GUA  C4'  CN7    0.160000       12.0110           0
     603 BN1  15   GUA  H4'  HN7    0.090000        1.0080           0
     604 BN1  15   GUA  O4'  ON6   -0.500000       15.9994           0
     605 BN1  15   GUA  C1'  CN7B   0.160000       12.0110           0
     606 BN1  15   GUA  H1'  HN7    0.090000        1.0080           0
     607 BN1  15   GUA  N9   NN2B  -0.020000       14.0070           0
     608 BN1  15   GUA  C4   CN5    0.260000       12.0110           0
     609 BN1  15   GUA  N2   NN1   -0.680000       14.0070           0
     610 BN1  15   GUA  H21  HN1    0.320000        1.0080           0
     611 BN1  15   GUA  H22  HN1    0.350000        1.0080           0
     612 BN1  15   GUA  N3   NN3G  -0.740000       14.0070           0
     613 BN1  15   GUA  C2   CN2    0.750000       12.0110           0
     614 BN1  15   GUA  N1   NN2G  -0.340000       14.0070           0
     615 BN1  15   GUA  H1   HN2    0.260000        1.0080           0
     616 BN1  15   GUA  C6   CN1    0.540000       12.0110           0
     617 BN1  15   GUA  O6   ON1   -0.510000       15.9994           0
     618 BN1  15   GUA  C5   CN5G   0.000000       12.0110           0
     619 BN1  15   GUA  N7   NN4   -0.600000       14.0070           0
     620 BN1  15   GUA  C8   CN4    0.250000       12.0110           0
     621 BN1  15   GUA  H8   HN3    0.160000        1.0080           0
     622 BN1  15   GUA  C2'  CN8   -0.180000       12.0110           0
     623 BN1  15   GUA  H2'' HN8    0.090000        1.0080           0
     624 BN1  15   GUA  H2'  HN8    0.090000        1.0080           0
     625 BN1  15   GUA  C3'  CN7    0.010000       12.0110           0
     626 BN1  15   GUA  H3'  HN7    0.090000        1.0080           0
     627 BN1  15   GUA  O3'  ON2   -0.570000       15.9994           0
     628 BN1  16   ADE  P    P2     1.500000       30.9740           0
     629 BN1  16   ADE  O1P  ON3   -0.780000       15.9994           0
     630 BN1  16   ADE  O2P  ON3   -0.780000       15.9994           0
     631 BN1  16   ADE  O5'  ON2   -0.570000       15.9994           0
     632 BN1  16   ADE  C5'  CN8B  -0.080000       12.0110           0
     633 BN1  16   ADE  H5'  HN8    0.090000        1.0080           0
     634 BN1  16   ADE  H5'' HN8    0.090000        1.0080           0
     635 BN1  16   ADE  C4'  CN7    0.160000       12.0110           0
     636 BN1  16   ADE  H4'  HN7    0.090000        1.0080           0
     637 BN1  16   ADE  O4'  ON6   -0.500000       15.9994           0
     638 BN1  16   ADE  C1'  CN7B   0.160000       12.0110           0
     639 BN1  16   ADE  H1'  HN7    0.090000        1.0080           0
     640 BN1  16   ADE  N9   NN2   -0.050000       14.0070           0
     641 BN1  16   ADE  C5   CN5    0.280000       12.0110           0
     642 BN1  16   ADE  N7   NN4   -0.710000       14.0070           0
     643 BN1  16   ADE  C8   CN4    0.340000       12.0110           0
     644 BN1  16   ADE  H8   HN3    0.120000        1.0080           0
     645 BN1  16   ADE  N1   NN3A  -0.740000       14.0070           0
     646 BN1  16   ADE  C2   CN4    0.500000       12.0110           0
     647 BN1  16   ADE  H2   HN3    0.130000        1.0080           0
     648 BN1  16   ADE  N3   NN3A  -0.750000       14.0070           0
     649 BN1  16   ADE  C4   CN5    0.430000       12.0110           0
     650 BN1  16   ADE  C6   CN2    0.460000       12.0110           0
     651 BN1  16   ADE  N6   NN1   -0.770000       14.0070           0
     652 BN1  16   ADE  H61  HN1    0.380000        1.0080           0
     653 BN1  16   ADE  H62  HN1    0.380000        1.0080           0
     654 BN1  16   ADE  C2'  CN8   -0.180000       12.0110           0
     655 BN1  16   ADE  H2'' HN8    0.090000        1.0080           0
     656 BN1  16   ADE  H2'  HN8    0.090000        1.0080           0
     657 BN1  16   ADE  C3'  CN7    0.140000       12.0110           0
     658 BN1  16   ADE  H3'  HN7    0.090000        1.0080           0
     659 BN1  16   ADE  O3'  ON5   -0.660000       15.9994           0
     660 BN1  16   ADE  H3T  HN5    0.430000        1.0080           0

     707 !NBOND: bonds
       1       2       2       3       3       6       3       4
       3       5       6       8       6      26       6       7
       8       9       9      11       9      23       9      10
      11      16      11      12      12      13      14      15
      14      12      16      18      16      17      18      19
      19      20      19      14      20      21      20      22
      23      25      23      26      23      24      26      28
      26      27      28      29      30      31      31      32
      32      35      32      33      32      34      35      37
      35      57      35      36      37      38      38      40
      38      54      38      39      40      49      40      43
      41      42      42      43      43      44      45      50
      46      45      46      47      46      48      49      48
      49      41      50      51      50      41      51      52
      51      53      54      56      54      57      54      55
      57      59      57      58      59      60      61      62
      62      63      63      66      63      64      63      65
      66      68      66      89      66      67      68      69
      69      71      69      86      69      70      71      72
      71      84      72      76      72      82      73      74
      73      75      77      73      77      78      77      76
      78      79      78      80      80      82      80      81
      82      83      83      84      84      85      86      88
      86      89      86      87      89      91      89      90
      91      92      93      94      94      95      95      98
      95      96      95      97      98     100      98     120
      98      99     100     101     101     103     101     117
     101     102     103     106     103     104     104     105
     106     108     106     107     108     109     108     110
     110     112     110     111     112     113     112     104
     113     114     113     115     113     116     117     119
     117     120     117     118     120     122     120     121
     122     123     124     125     125     126     126     129
     126     127     126     128     129     131     129     149
     129     130     131     132     132     134     132     146
     132     133     134     139     134     135     135     136
     137     138     137     135     139     141     139     140
     141     142     142     143     142     137     143     144
     143     145     146     148     146     149     146     147
     149     151     149     150     151     152     153     154
     154     155     155     158     155     156     155     157
     158     160     158     181     158     159     160     161
     161     163     161     178     161     162     163     164
     163     176     164     168     164     174     165     166
     165     167     169     165     169     170     169     168
     170     171     170     172     172     174     172     173
     174     175     175     176     176     177     178     180
     178     181     178     179     181     183     181     182
     183     184     184     185     184     186     184     187
     187     188     188     191     188     189     188     190
     191     193     191     211     191     192     193     194
     194     196     194     208     194     195     196     201
     196     197     197     198     199     200     199     197
     201     203     201     202     203     204     204     205
     204     199     205     206     205     207     208     210
     208     211     208     209     211     213     211     212
     213     214     214     215     214     216     214     217
     217     218     218     221     218     219     218     220
     221     223     221     243     221     222     223     224
     224     226     224     240     224     225     226     229
     226     227     227     228     229     231     229     230
     231     232     231     233     233     235     233     234
     235     236     235     227     236     237     236     238
     236     239     240     242     240     243     240     241
     243     245     243     244     245     246     246     247
     246     248     246     249     249     250     250     253
     250     251     250     252     253     255     253     276
     253     254     255     256     256     258     256     273
     256     257     258     259     258     271     259     263
     259     269     260     261     260     262     264     260
     264     265     264     263     265     266     265     267
     267     269     267     268     269     270     270     271
     271     272     273     275     273     276     273     274
     276     278     276     277     278     279     279     280
     279     281     279     282     282     283     283     286
     283     284     283     285     286     288     286     306
     286     287     288     289     289     291     289     303
     289     290     291     296     291     292     292     293
     294     295     294     292     296     298     296     297
     298     299     299     300     299     294     300     301
     300     302     303     305     303     306     303     304
     306     308     306     307     308     309     309     310
     309     311     309     312     312     313     313     316
     313     314     313     315     316     318     316     338
     316     317     318     319     319     321     319     335
     319     320     321     330     321     324     322     323
     323     324     324     325     326     331     327     326
     327     328     327     329     330     329     330     322
     331     332     331     322     332     333     332     334
     335     337     335     338     335     336     338     340
     338     339     340     341     341     342     341     343
     341     344     344     345     345     348     345     346
     345     347     348     350     348     370     348     349
     350     351     351     353     351     367     351     352
     353     362     353     356     354     355     355     356
     356     357     358     363     359     358     359     360
     359     361     362     361     362     354     363     364
     363     354     364     365     364     366     367     369
     367     370     367     368     370     372     370     371
     372     373     373     374     373     375     373     376
     376     377     377     380     377     378     377     379
     380     382     380     400     380     381     382     383
     383     385     383     397     383     384     385     390
     385     386     386     387     388     389     388     386
     390     392     390     391     392     393     393     394
     393     388     394     395     394     396     397     399
     397     400     397     398     400     402     400     401
     402     403     403     404     403     405     403     406
     406     407     407     410     407     408     407     409
     410     412     410     430     410     411     412     413
     413     415     413     427     413     414     415     420
     415     416     416     417     418     419     418     416
     420     422     420     421     422     423     423     424
     423     418     424     425     424     426     427     429
     427     430     427     428     430     432     430     431
     432     433     433     434     433     435     433     436
     436     437     437     440     437     438     437     439
     440     442     440     462     440     441     442     443
     443     445     443     459     443     444     445     448
     445     446     446     447     448     450     448     449
     450     451     450     452     452     454     452     453
     454     455     454     446     455     456     455     457
     455     458     459     461     459     462     459     460
     462     464     462     463     464     465     465     466
     465     467     465     468     468     469     469     472
     469     470     469     471     472     474     472     495
     472     473     474     475     475     477     475     492
     475     476     477     478     477     490     478     482
     478     488     479     480     479     481     483     479
     483     484     483     482     484     485     484     486
     486     488     486     487     488     489     489     490
     490     491     492     494     492     495     492     493
     495     497     495     496     497     498     498     499
     498     500     498     501     501     502     502     505
     502     503     502     504     505     507     505     527
     505     506     507     508     508     510     508     524
     508     509     510     513     510     511     511     512
     513     515     513     514     515     516     515     517
     517     519     517     518     519     520     519     511
     520     521     520     522     520     523     524     526
     524     527     524     525     527     529     527     528
     529     530     530     531     530     532     530     533
     533     534     534     537     534     535     534     536
     537     539     537     560     537     538     539     540
     540     542     540     557     540     541     542     543
     542     555     543     547     543     553     544     545
     544     546     548     544     548     549     548     547
     549     550     549     551     551     553     551     552
     553     554     554     555     555     556     557     559
     557     560     557     558     560     562     560     561
     562     563     563     564     563     565     563     566
     566     567     567     570     567     568     567     569
     570     572     570     592     570     571     572     573
     573     575     573     589     573     574     575     584
     575     578     576     577     577     578     578     579
     580     585     581     580     581     582     581     583
     584     583     584     576     585     586     585     576
     586     587     586     588     589     591     589     592
     589     590     592     594     592     593     594     595
     595     596     595     597     595     598     598     599
     599     602     599     600     599     601     602     604
     602     625     602     603     604     605     605     607
     605     622     605     606     607     608     607     620
     608     612     608     618     609     610     609     611
     613     609     613     614     613     612     614     615
     614     616     616     618     616     617     618     619
     619     620     620     621     622     624     622     625
     622     623     625     627     625     626     627     628
     628     629     628     630     628     631     631     632
     632     635     632     633     632     634     635     637
     635     657     635     636     637     638     638     640
     638     654     638     639     640     649     640     643
     641     642     642     643     643     644     645     650
     646     645     646     647     646     648     649     648
     649     641     650     651     650     641     651     652
     651     653     654     656     654     657     654     655
     657     659     657     658     659     660

    1269 !NTHETA: angles
       1       2       3       2       3       5       2       3       4
       2       3       6       3       6       7       3       6      26
       3       6       8       4       3       5       6      26      27
       6      26      28       6      26      23       6       8       9
       6       3       5       6       3       4       8       9      10
       8       9      23       8       9      11       8       6       7
       8       6      26       9      23      24       9      23      26
       9      11      12       9      11      16      11      16      17
      11      16      18      11      12      14      11      12      13
      11       9      10      11       9      23      13      12      14
      14      19      18      15      14      12      16      18      19
      16      11      12      18      16      17      19      20      22
      19      20      21      19      14      12      19      14      15
      20      19      18      20      19      14      21      20      22
      23      26      27      23      26      28      23       9      10
      25      23      24      25      23      26      25      23       9
      26      23      24      26       6       7      28      26      27
      29      28      26      30      31      32      31      32      34
      31      32      33      31      32      35      32      35      36
      32      35      57      32      35      37      33      32      34
      35      57      58      35      57      59      35      57      54
      35      37      38      35      32      34      35      32      33
      37      38      39      37      38      54      37      38      40
      37      35      36      37      35      57      38      54      55
      38      54      57      38      40      43      38      40      49
      40      49      41      40      49      48      40      43      42
      40      43      44      40      38      39      40      38      54
      41      50      45      41      42      43      42      41      49
      44      43      42      45      46      48      45      46      47
      46      45      50      47      46      48      48      49      41
      49      48      46      49      40      43      50      51      53
      50      51      52      50      41      49      50      41      42
      51      50      45      51      50      41      52      51      53
      54      57      58      54      57      59      54      38      39
      56      54      55      56      54      57      56      54      38
      57      54      55      57      35      36      59      57      58
      60      59      57      61      62      63      62      63      65
      62      63      64      62      63      66      63      66      67
      63      66      89      63      66      68      64      63      65
      66      89      90      66      89      91      66      89      86
      66      68      69      66      63      65      66      63      64
      68      69      70      68      69      86      68      69      71
      68      66      67      68      66      89      69      86      87
      69      86      89      69      71      84      69      71      72
      71      84      83      71      84      85      71      72      82
      71      72      76      71      69      70      71      69      86
      72      76      77      72      71      84      73      77      76
      73      77      78      74      73      75      76      72      82
      77      78      80      77      78      79      77      73      75
      77      73      74      78      80      81      78      80      82
      78      77      76      79      78      80      80      82      72
      80      82      83      82      83      84      82      80      81
      83      82      72      85      84      83      86      89      90
      86      89      91      86      69      70      88      86      87
      88      86      89      88      86      69      89      86      87
      89      66      67      91      89      90      92      91      89
      93      94      95      94      95      97      94      95      96
      94      95      98      95      98      99      95      98     120
      95      98     100      96      95      97      98     120     121
      98     120     122      98     120     117      98     100     101
      98      95      97      98      95      96     100     101     102
     100     101     117     100     101     103     100      98      99
     100      98     120     101     117     118     101     117     120
     101     103     104     101     103     106     103     106     107
     103     106     108     103     104     112     103     104     105
     103     101     102     103     101     117     105     104     112
     106     108     110     106     108     109     106     103     104
     108     110     111     108     110     112     108     106     107
     109     108     110     110     112     104     110     112     113
     112     113     116     112     113     115     112     113     114
     112     110     111     113     112     104     114     113     116
     114     113     115     115     113     116     117     120     121
     117     120     122     117     101     102     119     117     118
     119     117     120     119     117     101     120     117     118
     120      98      99     122     120     121     123     122     120
     124     125     126     125     126     128     125     126     127
     125     126     129     126     129     130     126     129     149
     126     129     131     127     126     128     129     149     150
     129     149     151     129     149     146     129     131     132
     129     126     128     129     126     127     131     132     133
     131     132     146     131     132     134     131     129     130
     131     129     149     132     146     147     132     146     149
     132     134     135     132     134     139     134     139     140
     134     139     141     134     135     137     134     135     136
     134     132     133     134     132     146     136     135     137
     137     142     141     138     137     135     139     141     142
     139     134     135     141     139     140     142     143     145
     142     143     144     142     137     135     142     137     138
     143     142     141     143     142     137     144     143     145
     146     149     150     146     149     151     146     132     133
     148     146     147     148     146     149     148     146     132
     149     146     147     149     129     130     151     149     150
     152     151     149     153     154     155     154     155     157
     154     155     156     154     155     158     155     158     159
     155     158     181     155     158     160     156     155     157
     158     181     182     158     181     183     158     181     178
     158     160     161     158     155     157     158     155     156
     160     161     162     160     161     178     160     161     163
     160     158     159     160     158     181     161     178     179
     161     178     181     161     163     176     161     163     164
     163     176     175     163     176     177     163     164     174
     163     164     168     163     161     162     163     161     178
     164     168     169     164     163     176     165     169     168
     165     169     170     166     165     167     168     164     174
     169     170     172     169     170     171     169     165     167
     169     165     166     170     172     173     170     172     174
     170     169     168     171     170     172     172     174     164
     172     174     175     174     175     176     174     172     173
     175     174     164     177     176     175     178     181     182
     178     181     183     178     161     162     180     178     179
     180     178     181     180     178     161     181     183     184
     181     178     179     181     158     159     183     181     182
     184     187     188     185     184     183     185     184     187
     185     184     186     186     184     183     186     184     187
     187     188     190     187     188     189     187     188     191
     187     184     183     188     191     192     188     191     211
     188     191     193     189     188     190     191     211     212
     191     211     213     191     211     208     191     193     194
     191     188     190     191     188     189     193     194     195
     193     194     208     193     194     196     193     191     192
     193     191     211     194     208     209     194     208     211
     194     196     197     194     196     201     196     201     202
     196     201     203     196     197     199     196     197     198
     196     194     195     196     194     208     198     197     199
     199     204     203     200     199     197     201     203     204
     201     196     197     203     201     202     204     205     207
     204     205     206     204     199     197     204     199     200
     205     204     203     205     204     199     206     205     207
     208     211     212     208     211     213     208     194     195
     210     208     209     210     208     211     210     208     194
     211     213     214     211     208     209     211     191     192
     213     211     212     214     217     218     215     214     213
     215     214     217     215     214     216     216     214     213
     216     214     217     217     218     220     217     218     219
     217     218     221     217     214     213     218     221     222
     218     221     243     218     221     223     219     218     220
     221     243     244     221     243     245     221     243     240
     221     223     224     221     218     220     221     218     219
     223     224     225     223     224     240     223     224     226
     223     221     222     223     221     243     224     240     241
     224     240     243     224     226     227     224     226     229
     226     229     230     226     229     231     226     227     235
     226     227     228     226     224     225     226     224     240
     228     227     235     229     231     233     229     231     232
     229     226     227     231     233     234     231     233     235
     231     229     230     232     231     233     233     235     227
     233     235     236     235     236     239     235     236     238
     235     236     237     235     233     234     236     235     227
     237     236     239     237     236     238     238     236     239
     240     243     244     240     243     245     240     224     225
     242     240     241     242     240     243     242     240     224
     243     245     246     243     240     241     243     221     222
     245     243     244     246     249     250     247     246     245
     247     246     249     247     246     248     248     246     245
     248     246     249     249     250     252     249     250     251
     249     250     253     249     246     245     250     253     254
     250     253     276     250     253     255     251     250     252
     253     276     277     253     276     278     253     276     273
     253     255     256     253     250     252     253     250     251
     255     256     257     255     256     273     255     256     258
     255     253     254     255     253     276     256     273     274
     256     273     276     256     258     271     256     258     259
     258     271     270     258     271     272     258     259     269
     258     259     263     258     256     257     258     256     273
     259     263     264     259     258     271     260     264     263
     260     264     265     261     260     262     263     259     269
     264     265     267     264     265     266     264     260     262
     264     260     261     265     267     268     265     267     269
     265     264     263     266     265     267     267     269     259
     267     269     270     269     270     271     269     267     268
     270     269     259     272     271     270     273     276     277
     273     276     278     273     256     257     275     273     274
     275     273     276     275     273     256     276     278     279
     276     273     274     276     253     254     278     276     277
     279     282     283     280     279     278     280     279     282
     280     279     281     281     279     278     281     279     282
     282     283     285     282     283     284     282     283     286
     282     279     278     283     286     287     283     286     306
     283     286     288     284     283     285     286     306     307
     286     306     308     286     306     303     286     288     289
     286     283     285     286     283     284     288     289     290
     288     289     303     288     289     291     288     286     287
     288     286     306     289     303     304     289     303     306
     289     291     292     289     291     296     291     296     297
     291     296     298     291     292     294     291     292     293
     291     289     290     291     289     303     293     292     294
     294     299     298     295     294     292     296     298     299
     296     291     292     298     296     297     299     300     302
     299     300     301     299     294     292     299     294     295
     300     299     298     300     299     294     301     300     302
     303     306     307     303     306     308     303     289     290
     305     303     304     305     303     306     305     303     289
     306     308     309     306     303     304     306     286     287
     308     306     307     309     312     313     310     309     308
     310     309     312     310     309     311     311     309     308
     311     309     312     312     313     315     312     313     314
     312     313     316     312     309     308     313     316     317
     313     316     338     313     316     318     314     313     315
     316     338     339     316     338     340     316     338     335
     316     318     319     316     313     315     316     313     314
     318     319     320     318     319     335     318     319     321
     318     316     317     318     316     338     319     335     336
     319     335     338     319     321     324     319     321     330
     321     330     322     321     330     329     321     324     323
     321     324     325     321     319     320     321     319     335
     322     331     326     322     323     324     323     322     330
     325     324     323     326     327     329     326     327     328
     327     326     331     328     327     329     329     330     322
     330     329     327     330     321     324     331     332     334
     331     332     333     331     322     330     331     322     323
     332     331     326     332     331     322     333     332     334
     335     338     339     335     338     340     335     319     320
     337     335     336     337     335     338     337     335     319
     338     340     341     338     335     336     338     316     317
     340     338     339     341     344     345     342     341     340
     342     341     344     342     341     343     343     341     340
     343     341     344     344     345     347     344     345     346
     344     345     348     344     341     340     345     348     349
     345     348     370     345     348     350     346     345     347
     348     370     371     348     370     372     348     370     367
     348     350     351     348     345     347     348     345     346
     350     351     352     350     351     367     350     351     353
     350     348     349     350     348     370     351     367     368
     351     367     370     351     353     356     351     353     362
     353     362     354     353     362     361     353     356     355
     353     356     357     353     351     352     353     351     367
     354     363     358     354     355     356     355     354     362
     357     356     355     358     359     361     358     359     360
     359     358     363     360     359     361     361     362     354
     362     361     359     362     353     356     363     364     366
     363     364     365     363     354     362     363     354     355
     364     363     358     364     363     354     365     364     366
     367     370     371     367     370     372     367     351     352
     369     367     368     369     367     370     369     367     351
     370     372     373     370     367     368     370     348     349
     372     370     371     373     376     377     374     373     372
     374     373     376     374     373     375     375     373     372
     375     373     376     376     377     379     376     377     378
     376     377     380     376     373     372     377     380     381
     377     380     400     377     380     382     378     377     379
     380     400     401     380     400     402     380     400     397
     380     382     383     380     377     379     380     377     378
     382     383     384     382     383     397     382     383     385
     382     380     381     382     380     400     383     397     398
     383     397     400     383     385     386     383     385     390
     385     390     391     385     390     392     385     386     388
     385     386     387     385     383     384     385     383     397
     387     386     388     388     393     392     389     388     386
     390     392     393     390     385     386     392     390     391
     393     394     396     393     394     395     393     388     386
     393     388     389     394     393     392     394     393     388
     395     394     396     397     400     401     397     400     402
     397     383     384     399     397     398     399     397     400
     399     397     383     400     402     403     400     397     398
     400     380     381     402     400     401     403     406     407
     404     403     402     404     403     406     404     403     405
     405     403     402     405     403     406     406     407     409
     406     407     408     406     407     410     406     403     402
     407     410     411     407     410     430     407     410     412
     408     407     409     410     430     431     410     430     432
     410     430     427     410     412     413     410     407     409
     410     407     408     412     413     414     412     413     427
     412     413     415     412     410     411     412     410     430
     413     427     428     413     427     430     413     415     416
     413     415     420     415     420     421     415     420     422
     415     416     418     415     416     417     415     413     414
     415     413     427     417     416     418     418     423     422
     419     418     416     420     422     423     420     415     416
     422     420     421     423     424     426     423     424     425
     423     418     416     423     418     419     424     423     422
     424     423     418     425     424     426     427     430     431
     427     430     432     427     413     414     429     427     428
     429     427     430     429     427     413     430     432     433
     430     427     428     430     410     411     432     430     431
     433     436     437     434     433     432     434     433     436
     434     433     435     435     433     432     435     433     436
     436     437     439     436     437     438     436     437     440
     436     433     432     437     440     441     437     440     462
     437     440     442     438     437     439     440     462     463
     440     462     464     440     462     459     440     442     443
     440     437     439     440     437     438     442     443     444
     442     443     459     442     443     445     442     440     441
     442     440     462     443     459     460     443     459     462
     443     445     446     443     445     448     445     448     449
     445     448     450     445     446     454     445     446     447
     445     443     444     445     443     459     447     446     454
     448     450     452     448     450     451     448     445     446
     450     452     453     450     452     454     450     448     449
     451     450     452     452     454     446     452     454     455
     454     455     458     454     455     457     454     455     456
     454     452     453     455     454     446     456     455     458
     456     455     457     457     455     458     459     462     463
     459     462     464     459     443     444     461     459     460
     461     459     462     461     459     443     462     464     465
     462     459     460     462     440     441     464     462     463
     465     468     469     466     465     464     466     465     468
     466     465     467     467     465     464     467     465     468
     468     469     471     468     469     470     468     469     472
     468     465     464     469     472     473     469     472     495
     469     472     474     470     469     471     472     495     496
     472     495     497     472     495     492     472     474     475
     472     469     471     472     469     470     474     475     476
     474     475     492     474     475     477     474     472     473
     474     472     495     475     492     493     475     492     495
     475     477     490     475     477     478     477     490     489
     477     490     491     477     478     488     477     478     482
     477     475     476     477     475     492     478     482     483
     478     477     490     479     483     482     479     483     484
     480     479     481     482     478     488     483     484     486
     483     484     485     483     479     481     483     479     480
     484     486     487     484     486     488     484     483     482
     485     484     486     486     488     478     486     488     489
     488     489     490     488     486     487     489     488     478
     491     490     489     492     495     496     492     495     497
     492     475     476     494     492     493     494     492     495
     494     492     475     495     497     498     495     492     493
     495     472     473     497     495     496     498     501     502
     499     498     497     499     498     501     499     498     500
     500     498     497     500     498     501     501     502     504
     501     502     503     501     502     505     501     498     497
     502     505     506     502     505     527     502     505     507
     503     502     504     505     527     528     505     527     529
     505     527     524     505     507     508     505     502     504
     505     502     503     507     508     509     507     508     524
     507     508     510     507     505     506     507     505     527
     508     524     525     508     524     527     508     510     511
     508     510     513     510     513     514     510     513     515
     510     511     519     510     511     512     510     508     509
     510     508     524     512     511     519     513     515     517
     513     515     516     513     510     511     515     517     518
     515     517     519     515     513     514     516     515     517
     517     519     511     517     519     520     519     520     523
     519     520     522     519     520     521     519     517     518
     520     519     511     521     520     523     521     520     522
     522     520     523     524     527     528     524     527     529
     524     508     509     526     524     525     526     524     527
     526     524     508     527     529     530     527     524     525
     527     505     506     529     527     528     530     533     534
     531     530     529     531     530     533     531     530     532
     532     530     529     532     530     533     533     534     536
     533     534     535     533     534     537     533     530     529
     534     537     538     534     537     560     534     537     539
     535     534     536     537     560     561     537     560     562
     537     560     557     537     539     540     537     534     536
     537     534     535     539     540     541     539     540     557
     539     540     542     539     537     538     539     537     560
     540     557     558     540     557     560     540     542     555
     540     542     543     542     555     554     542     555     556
     542     543     553     542     543     547     542     540     541
     542     540     557     543     547     548     543     542     555
     544     548     547     544     548     549     545     544     546
     547     543     553     548     549     551     548     549     550
     548     544     546     548     544     545     549     551     552
     549     551     553     549     548     547     550     549     551
     551     553     543     551     553     554     553     554     555
     553     551     552     554     553     543     556     555     554
     557     560     561     557     560     562     557     540     541
     559     557     558     559     557     560     559     557     540
     560     562     563     560     557     558     560     537     538
     562     560     561     563     566     567     564     563     562
     564     563     566     564     563     565     565     563     562
     565     563     566     566     567     569     566     567     568
     566     567     570     566     563     562     567     570     571
     567     570     592     567     570     572     568     567     569
     570     592     593     570     592     594     570     592     589
     570     572     573     570     567     569     570     567     568
     572     573     574     572     573     589     572     573     575
     572     570     571     572     570     592     573     589     590
     573     589     592     573     575     578     573     575     584
     575     584     576     575     584     583     575     578     577
     575     578     579     575     573     574     575     573     589
     576     585     580     576     577     578     577     576     584
     579     578     577     580     581     583     580     581     582
     581     580     585     582     581     583     583     584     576
     584     583     581     584     575     578     585     586     588
     585     586     587     585     576     584     585     576     577
     586     585     580     586     585     576     587     586     588
     589     592     593     589     592     594     589     573     574
     591     589     590     591     589     592     591     589     573
     592     594     595     592     589     590     592     570     571
     594     592     593     595     598     599     596     595     594
     596     595     598     596     595     597     597     595     594
     597     595     598     598     599     601     598     599     600
     598     599     602     598     595     594     599     602     603
     599     602     625     599     602     604     600     599     601
     602     625     626     602     625     627     602     625     622
     602     604     605     602     599     601     602     599     600
     604     605     606     604     605     622     604     605     607
     604     602     603     604     602     625     605     622     623
     605     622     625     605     607     620     605     607     608
     607     620     619     607     620     621     607     608     618
     607     608     612     607     605     606     607     605     622
     608     612     613     608     607     620     609     613     612
     609     613     614     610     609     611     612     608     618
     613     614     616     613     614     615     613     609     611
     613     609     610     614     616     617     614     616     618
     614     613     612     615     614     616     616     618     608
     616     618     619     618     619     620     618     616     617
     619     618     608     621     620     619     622     625     626
     622     625     627     622     605     606     624     622     623
     624     622     625     624     622     605     625     627     628
     625     622     623     625     602     603     627     625     626
     628     631     632     629     628     627     629     628     631
     629     628     630     630     628     627     630     628     631
     631     632     634     631     632     633     631     632     635
     631     628     627     632     635     636     632     635     657
     632     635     637     633     632     634     635     657     658
     635     657     659     635     657     654     635     637     638
     635     632     634     635     632     633     637     638     639
     637     638     654     637     638     640     637     635     636
     637     635     657     638     654     655     638     654     657
     638     640     643     638     640     649     640     649     641
     640     649     648     640     643     642     640     643     644
     640     638     639     640     638     654     641     650     645
     641     642     643     642     641     649     644     643     642
     645     646     648     645     646     647     646     645     650
     647     646     648     648     649     641     649     648     646
     649     640     643     650     651     653     650     651     652
     650     641     649     650     641     642     651     650     645
     651     650     641     652     651     653     654     657     658
     654     657     659     654     638     639     656     654     655
     656     654     657     656     654     638     657     654     655
     657     635     636     659     657     658     660     659     657

    1864 !NPHI: dihedrals
       1       2       3       5       1       2       3       4
       1       2       3       6       2       3       6       7
       2       3       6      26       2       3       6       8
       3       6      26      27       3       6      26      28
       3       6      26      23       3       6       8       9
       4       3       6       7       4       3       6      26
       4       3       6       8       5       3       6       7
       5       3       6      26       5       3       6       8
       6      26      28      29       6      26      23      24
       6      26      23       9       6      26      23      25
       6       8       9      10       6       8       9      23
       6       8       9      11       7       6      26      27
       7       6      26      28       7       6      26      23
       7       6       8       9       8       9      23      24
       8       9      23      26       8       9      23      25
       8       9      11      12       8       9      11      16
       8       6      26      27       8       6      26      28
       8       6      26      23       9      23      26      27
       9      23      26      28       9      11      12      14
       9      11      12      13       9      11      16      17
       9      11      16      18       9       8       6      26
      10       9      23      24      10       9      23      26
      10       9      23      25      10       9      11      12
      10       9      11      16      11      12      14      15
      11      12      14      19      11      16      18      19
      11       9      23      24      11       9      23      26
      11       9      23      25      12      14      19      18
      12      14      19      20      12      11      16      17
      12      11      16      18      12      11       9      23
      13      12      14      15      13      12      14      19
      13      12      11      16      14      12      11      16
      14      19      18      16      14      19      20      22
      14      19      20      21      15      14      19      18
      15      14      19      20      16      18      19      20
      16      11       9      23      17      16      18      19
      18      19      20      22      18      19      20      21
      23      26      28      29      24      23      26      27
      24      23      26      28      25      23      26      27
      25      23      26      28      27      26      28      29
      30      31      32      34      30      31      32      33
      30      31      32      35      31      32      35      36
      31      32      35      57      31      32      35      37
      32      35      57      58      32      35      57      59
      32      35      57      54      32      35      37      38
      33      32      35      36      33      32      35      57
      33      32      35      37      34      32      35      36
      34      32      35      57      34      32      35      37
      35      57      59      60      35      57      54      55
      35      57      54      38      35      57      54      56
      35      37      38      39      35      37      38      54
      35      37      38      40      36      35      57      58
      36      35      57      59      36      35      57      54
      36      35      37      38      37      38      54      55
      37      38      54      57      37      38      54      56
      37      38      40      43      37      38      40      49
      37      35      57      58      37      35      57      59
      37      35      57      54      38      54      57      58
      38      54      57      59      38      40      43      42
      38      40      43      44      38      40      49      41
      38      40      49      48      38      37      35      57
      39      38      54      55      39      38      54      57
      39      38      54      56      39      38      40      43
      39      38      40      49      40      43      42      41
      40      49      41      42      40      49      41      50
      40      49      48      46      40      38      54      55
      40      38      54      57      40      38      54      56
      41      49      48      46      41      49      40      43
      41      42      43      44      41      50      45      46
      41      50      51      53      41      50      51      52
      42      43      40      49      42      41      49      48
      42      41      50      45      42      41      50      51
      43      42      41      49      43      42      41      50
      43      40      49      48      43      40      38      54
      44      43      40      49      45      50      41      49
      45      50      51      53      45      50      51      52
      45      46      48      49      46      45      50      51
      47      46      48      49      47      46      45      50
      48      46      45      50      48      49      41      50
      49      41      50      51      49      40      38      54
      54      57      59      60      55      54      57      58
      55      54      57      59      56      54      57      58
      56      54      57      59      58      57      59      60
      61      62      63      65      61      62      63      64
      61      62      63      66      62      63      66      67
      62      63      66      89      62      63      66      68
      63      66      89      90      63      66      89      91
      63      66      89      86      63      66      68      69
      64      63      66      67      64      63      66      89
      64      63      66      68      65      63      66      67
      65      63      66      89      65      63      66      68
      66      89      91      92      66      89      86      87
      66      89      86      69      66      89      86      88
      66      68      69      70      66      68      69      86
      66      68      69      71      67      66      89      90
      67      66      89      91      67      66      89      86
      67      66      68      69      68      69      86      87
      68      69      86      89      68      69      86      88
      68      69      71      84      68      69      71      72
      68      66      89      90      68      66      89      91
      68      66      89      86      69      86      89      90
      69      86      89      91      69      71      84      83
      69      71      84      85      69      71      72      82
      69      71      72      76      69      68      66      89
      70      69      86      87      70      69      86      89
      70      69      86      88      70      69      71      84
      70      69      71      72      71      84      83      82
      71      72      82      83      71      72      82      80
      71      72      76      77      71      69      86      87
      71      69      86      89      71      69      86      88
      72      82      83      84      72      82      80      81
      72      82      80      78      72      76      77      78
      72      76      77      73      72      71      84      83
      72      71      84      85      72      71      69      86
      73      77      78      80      73      77      78      79
      74      73      77      76      74      73      77      78
      75      73      77      76      75      73      77      78
      76      77      78      80      76      77      78      79
      76      72      82      83      76      72      82      80
      76      72      71      84      77      76      72      82
      77      78      80      81      77      78      80      82
      78      80      82      83      79      78      80      81
      79      78      80      82      80      82      83      84
      81      80      82      83      82      72      71      84
      82      83      84      85      84      71      69      86
      86      89      91      92      87      86      89      90
      87      86      89      91      88      86      89      90
      88      86      89      91      90      89      91      92
      93      94      95      97      93      94      95      96
      93      94      95      98      94      95      98      99
      94      95      98     120      94      95      98     100
      95      98     120     121      95      98     120     122
      95      98     120     117      95      98     100     101
      96      95      98      99      96      95      98     120
      96      95      98     100      97      95      98      99
      97      95      98     120      97      95      98     100
      98     120     122     123      98     120     117     118
      98     120     117     101      98     120     117     119
      98     100     101     102      98     100     101     117
      98     100     101     103      99      98     120     121
      99      98     120     122      99      98     120     117
      99      98     100     101     100     101     117     118
     100     101     117     120     100     101     117     119
     100     101     103     104     100     101     103     106
     100      98     120     121     100      98     120     122
     100      98     120     117     101     117     120     121
     101     117     120     122     101     103     104     112
     101     103     104     105     101     103     106     107
     101     103     106     108     101     100      98     120
     102     101     117     118     102     101     117     120
     102     101     117     119     102     101     103     104
     102     101     103     106     103     104     112     113
     103     104     112     110     103     106     108     110
     103     106     108     109     103     101     117     118
     103     101     117     120     103     101     117     119
     104     112     113     116     104     112     113     115
     104     112     113     114     104     112     110     111
     104     112     110     108     104     103     106     107
     104     103     106     108     104     103     101     117
     105     104     112     113     105     104     112     110
     105     104     103     106     106     108     110     111
     106     108     110     112     106     103     104     112
     106     103     101     117     107     106     108     110
     107     106     108     109     108     110     112     113
     109     108     110     111     109     108     110     112
     110     112     113     116     110     112     113     115
     110     112     113     114     111     110     112     113
     117     120     122     123     118     117     120     121
     118     117     120     122     119     117     120     121
     119     117     120     122     121     120     122     123
     124     125     126     128     124     125     126     127
     124     125     126     129     125     126     129     130
     125     126     129     149     125     126     129     131
     126     129     149     150     126     129     149     151
     126     129     149     146     126     129     131     132
     127     126     129     130     127     126     129     149
     127     126     129     131     128     126     129     130
     128     126     129     149     128     126     129     131
     129     149     151     152     129     149     146     147
     129     149     146     132     129     149     146     148
     129     131     132     133     129     131     132     146
     129     131     132     134     130     129     149     150
     130     129     149     151     130     129     149     146
     130     129     131     132     131     132     146     147
     131     132     146     149     131     132     146     148
     131     132     134     135     131     132     134     139
     131     129     149     150     131     129     149     151
     131     129     149     146     132     146     149     150
     132     146     149     151     132     134     135     137
     132     134     135     136     132     134     139     140
     132     134     139     141     132     131     129     149
     133     132     146     147     133     132     146     149
     133     132     146     148     133     132     134     135
     133     132     134     139     134     135     137     138
     134     135     137     142     134     139     141     142
     134     132     146     147     134     132     146     149
     134     132     146     148     135     137     142     141
     135     137     142     143     135     134     139     140
     135     134     139     141     135     134     132     146
     136     135     137     138     136     135     137     142
     136     135     134     139     137     135     134     139
     137     142     141     139     137     142     143     145
     137     142     143     144     138     137     142     141
     138     137     142     143     139     141     142     143
     139     134     132     146     140     139     141     142
     141     142     143     145     141     142     143     144
     146     149     151     152     147     146     149     150
     147     146     149     151     148     146     149     150
     148     146     149     151     150     149     151     152
     153     154     155     157     153     154     155     156
     153     154     155     158     154     155     158     159
     154     155     158     181     154     155     158     160
     155     158     181     182     155     158     181     183
     155     158     181     178     155     158     160     161
     156     155     158     159     156     155     158     181
     156     155     158     160     157     155     158     159
     157     155     158     181     157     155     158     160
     158     181     183     184     158     181     178     179
     158     181     178     161     158     181     178     180
     158     160     161     162     158     160     161     178
     158     160     161     163     159     158     181     182
     159     158     181     183     159     158     181     178
     159     158     160     161     160     161     178     179
     160     161     178     181     160     161     178     180
     160     161     163     176     160     161     163     164
     160     158     181     182     160     158     181     183
     160     158     181     178     161     178     181     182
     161     178     181     183     161     163     176     175
     161     163     176     177     161     163     164     174
     161     163     164     168     161     160     158     181
     162     161     178     179     162     161     178     181
     162     161     178     180     162     161     163     176
     162     161     163     164     163     176     175     174
     163     164     174     175     163     164     174     172
     163     164     168     169     163     161     178     179
     163     161     178     181     163     161     178     180
     164     174     175     176     164     174     172     173
     164     174     172     170     164     168     169     170
     164     168     169     165     164     163     176     175
     164     163     176     177     164     163     161     178
     165     169     170     172     165     169     170     171
     166     165     169     168     166     165     169     170
     167     165     169     168     167     165     169     170
     168     169     170     172     168     169     170     171
     168     164     174     175     168     164     174     172
     168     164     163     176     169     168     164     174
     169     170     172     173     169     170     172     174
     170     172     174     175     171     170     172     173
     171     170     172     174     172     174     175     176
     173     172     174     175     174     164     163     176
     174     175     176     177     176     163     161     178
     178     181     183     184     179     178     181     182
     179     178     181     183     180     178     181     182
     180     178     181     183     181     183     184     187
     181     183     184     186     181     183     184     185
     182     181     183     184     183     184     187     188
     184     187     188     190     184     187     188     189
     184     187     188     191     185     184     187     188
     186     184     187     188     187     188     191     192
     187     188     191     211     187     188     191     193
     188     191     211     212     188     191     211     213
     188     191     211     208     188     191     193     194
     189     188     191     192     189     188     191     211
     189     188     191     193     190     188     191     192
     190     188     191     211     190     188     191     193
     191     211     213     214     191     211     208     209
     191     211     208     194     191     211     208     210
     191     193     194     195     191     193     194     208
     191     193     194     196     192     191     211     212
     192     191     211     213     192     191     211     208
     192     191     193     194     193     194     208     209
     193     194     208     211     193     194     208     210
     193     194     196     197     193     194     196     201
     193     191     211     212     193     191     211     213
     193     191     211     208     194     208     211     212
     194     208     211     213     194     196     197     199
     194     196     197     198     194     196     201     202
     194     196     201     203     194     193     191     211
     195     194     208     209     195     194     208     211
     195     194     208     210     195     194     196     197
     195     194     196     201     196     197     199     200
     196     197     199     204     196     201     203     204
     196     194     208     209     196     194     208     211
     196     194     208     210     197     199     204     203
     197     199     204     205     197     196     201     202
     197     196     201     203     197     196     194     208
     198     197     199     200     198     197     199     204
     198     197     196     201     199     197     196     201
     199     204     203     201     199     204     205     207
     199     204     205     206     200     199     204     203
     200     199     204     205     201     203     204     205
     201     196     194     208     202     201     203     204
     203     204     205     207     203     204     205     206
     208     211     213     214     209     208     211     212
     209     208     211     213     210     208     211     212
     210     208     211     213     211     213     214     217
     211     213     214     216     211     213     214     215
     212     211     213     214     213     214     217     218
     214     217     218     220     214     217     218     219
     214     217     218     221     215     214     217     218
     216     214     217     218     217     218     221     222
     217     218     221     243     217     218     221     223
     218     221     243     244     218     221     243     245
     218     221     243     240     218     221     223     224
     219     218     221     222     219     218     221     243
     219     218     221     223     220     218     221     222
     220     218     221     243     220     218     221     223
     221     243     245     246     221     243     240     241
     221     243     240     224     221     243     240     242
     221     223     224     225     221     223     224     240
     221     223     224     226     222     221     243     244
     222     221     243     245     222     221     243     240
     222     221     223     224     223     224     240     241
     223     224     240     243     223     224     240     242
     223     224     226     227     223     224     226     229
     223     221     243     244     223     221     243     245
     223     221     243     240     224     240     243     244
     224     240     243     245     224     226     227     235
     224     226     227     228     224     226     229     230
     224     226     229     231     224     223     221     243
     225     224     240     241     225     224     240     243
     225     224     240     242     225     224     226     227
     225     224     226     229     226     227     235     236
     226     227     235     233     226     229     231     233
     226     229     231     232     226     224     240     241
     226     224     240     243     226     224     240     242
     227     235     236     239     227     235     236     238
     227     235     236     237     227     235     233     234
     227     235     233     231     227     226     229     230
     227     226     229     231     227     226     224     240
     228     227     235     236     228     227     235     233
     228     227     226     229     229     231     233     234
     229     231     233     235     229     226     227     235
     229     226     224     240     230     229     231     233
     230     229     231     232     231     233     235     236
     232     231     233     234     232     231     233     235
     233     235     236     239     233     235     236     238
     233     235     236     237     234     233     235     236
     240     243     245     246     241     240     243     244
     241     240     243     245     242     240     243     244
     242     240     243     245     243     245     246     249
     243     245     246     248     243     245     246     247
     244     243     245     246     245     246     249     250
     246     249     250     252     246     249     250     251
     246     249     250     253     247     246     249     250
     248     246     249     250     249     250     253     254
     249     250     253     276     249     250     253     255
     250     253     276     277     250     253     276     278
     250     253     276     273     250     253     255     256
     251     250     253     254     251     250     253     276
     251     250     253     255     252     250     253     254
     252     250     253     276     252     250     253     255
     253     276     278     279     253     276     273     274
     253     276     273     256     253     276     273     275
     253     255     256     257     253     255     256     273
     253     255     256     258     254     253     276     277
     254     253     276     278     254     253     276     273
     254     253     255     256     255     256     273     274
     255     256     273     276     255     256     273     275
     255     256     258     271     255     256     258     259
     255     253     276     277     255     253     276     278
     255     253     276     273     256     273     276     277
     256     273     276     278     256     258     271     270
     256     258     271     272     256     258     259     269
     256     258     259     263     256     255     253     276
     257     256     273     274     257     256     273     276
     257     256     273     275     257     256     258     271
     257     256     258     259     258     271     270     269
     258     259     269     270     258     259     269     267
     258     259     263     264     258     256     273     274
     258     256     273     276     258     256     273     275
     259     269     270     271     259     269     267     268
     259     269     267     265     259     263     264     265
     259     263     264     260     259     258     271     270
     259     258     271     272     259     258     256     273
     260     264     265     267     260     264     265     266
     261     260     264     263     261     260     264     265
     262     260     264     263     262     260     264     265
     263     264     265     267     263     264     265     266
     263     259     269     270     263     259     269     267
     263     259     258     271     264     263     259     269
     264     265     267     268     264     265     267     269
     265     267     269     270     266     265     267     268
     266     265     267     269     267     269     270     271
     268     267     269     270     269     259     258     271
     269     270     271     272     271     258     256     273
     273     276     278     279     274     273     276     277
     274     273     276     278     275     273     276     277
     275     273     276     278     276     278     279     282
     276     278     279     281     276     278     279     280
     277     276     278     279     278     279     282     283
     279     282     283     285     279     282     283     284
     279     282     283     286     280     279     282     283
     281     279     282     283     282     283     286     287
     282     283     286     306     282     283     286     288
     283     286     306     307     283     286     306     308
     283     286     306     303     283     286     288     289
     284     283     286     287     284     283     286     306
     284     283     286     288     285     283     286     287
     285     283     286     306     285     283     286     288
     286     306     308     309     286     306     303     304
     286     306     303     289     286     306     303     305
     286     288     289     290     286     288     289     303
     286     288     289     291     287     286     306     307
     287     286     306     308     287     286     306     303
     287     286     288     289     288     289     303     304
     288     289     303     306     288     289     303     305
     288     289     291     292     288     289     291     296
     288     286     306     307     288     286     306     308
     288     286     306     303     289     303     306     307
     289     303     306     308     289     291     292     294
     289     291     292     293     289     291     296     297
     289     291     296     298     289     288     286     306
     290     289     303     304     290     289     303     306
     290     289     303     305     290     289     291     292
     290     289     291     296     291     292     294     295
     291     292     294     299     291     296     298     299
     291     289     303     304     291     289     303     306
     291     289     303     305     292     294     299     298
     292     294     299     300     292     291     296     297
     292     291     296     298     292     291     289     303
     293     292     294     295     293     292     294     299
     293     292     291     296     294     292     291     296
     294     299     298     296     294     299     300     302
     294     299     300     301     295     294     299     298
     295     294     299     300     296     298     299     300
     296     291     289     303     297     296     298     299
     298     299     300     302     298     299     300     301
     303     306     308     309     304     303     306     307
     304     303     306     308     305     303     306     307
     305     303     306     308     306     308     309     312
     306     308     309     311     306     308     309     310
     307     306     308     309     308     309     312     313
     309     312     313     315     309     312     313     314
     309     312     313     316     310     309     312     313
     311     309     312     313     312     313     316     317
     312     313     316     338     312     313     316     318
     313     316     338     339     313     316     338     340
     313     316     338     335     313     316     318     319
     314     313     316     317     314     313     316     338
     314     313     316     318     315     313     316     317
     315     313     316     338     315     313     316     318
     316     338     340     341     316     338     335     336
     316     338     335     319     316     338     335     337
     316     318     319     320     316     318     319     335
     316     318     319     321     317     316     338     339
     317     316     338     340     317     316     338     335
     317     316     318     319     318     319     335     336
     318     319     335     338     318     319     335     337
     318     319     321     324     318     319     321     330
     318     316     338     339     318     316     338     340
     318     316     338     335     319     335     338     339
     319     335     338     340     319     321     324     323
     319     321     324     325     319     321     330     322
     319     321     330     329     319     318     316     338
     320     319     335     336     320     319     335     338
     320     319     335     337     320     319     321     324
     320     319     321     330     321     324     323     322
     321     330     322     323     321     330     322     331
     321     330     329     327     321     319     335     336
     321     319     335     338     321     319     335     337
     322     330     329     327     322     330     321     324
     322     323     324     325     322     331     326     327
     322     331     332     334     322     331     332     333
     323     324     321     330     323     322     330     329
     323     322     331     326     323     322     331     332
     324     323     322     330     324     323     322     331
     324     321     330     329     324     321     319     335
     325     324     321     330     326     331     322     330
     326     331     332     334     326     331     332     333
     326     327     329     330     327     326     331     332
     328     327     329     330     328     327     326     331
     329     327     326     331     329     330     322     331
     330     322     331     332     330     321     319     335
     335     338     340     341     336     335     338     339
     336     335     338     340     337     335     338     339
     337     335     338     340     338     340     341     344
     338     340     341     343     338     340     341     342
     339     338     340     341     340     341     344     345
     341     344     345     347     341     344     345     346
     341     344     345     348     342     341     344     345
     343     341     344     345     344     345     348     349
     344     345     348     370     344     345     348     350
     345     348     370     371     345     348     370     372
     345     348     370     367     345     348     350     351
     346     345     348     349     346     345     348     370
     346     345     348     350     347     345     348     349
     347     345     348     370     347     345     348     350
     348     370     372     373     348     370     367     368
     348     370     367     351     348     370     367     369
     348     350     351     352     348     350     351     367
     348     350     351     353     349     348     370     371
     349     348     370     372     349     348     370     367
     349     348     350     351     350     351     367     368
     350     351     367     370     350     351     367     369
     350     351     353     356     350     351     353     362
     350     348     370     371     350     348     370     372
     350     348     370     367     351     367     370     371
     351     367     370     372     351     353     356     355
     351     353     356     357     351     353     362     354
     351     353     362     361     351     350     348     370
     352     351     367     368     352     351     367     370
     352     351     367     369     352     351     353     356
     352     351     353     362     353     356     355     354
     353     362     354     355     353     362     354     363
     353     362     361     359     353     351     367     368
     353     351     367     370     353     351     367     369
     354     362     361     359     354     362     353     356
     354     355     356     357     354     363     358     359
     354     363     364     366     354     363     364     365
     355     356     353     362     355     354     362     361
     355     354     363     358     355     354     363     364
     356     355     354     362     356     355     354     363
     356     353     362     361     356     353     351     367
     357     356     353     362     358     363     354     362
     358     363     364     366     358     363     364     365
     358     359     361     362     359     358     363     364
     360     359     361     362     360     359     358     363
     361     359     358     363     361     362     354     363
     362     354     363     364     362     353     351     367
     367     370     372     373     368     367     370     371
     368     367     370     372     369     367     370     371
     369     367     370     372     370     372     373     376
     370     372     373     375     370     372     373     374
     371     370     372     373     372     373     376     377
     373     376     377     379     373     376     377     378
     373     376     377     380     374     373     376     377
     375     373     376     377     376     377     380     381
     376     377     380     400     376     377     380     382
     377     380     400     401     377     380     400     402
     377     380     400     397     377     380     382     383
     378     377     380     381     378     377     380     400
     378     377     380     382     379     377     380     381
     379     377     380     400     379     377     380     382
     380     400     402     403     380     400     397     398
     380     400     397     383     380     400     397     399
     380     382     383     384     380     382     383     397
     380     382     383     385     381     380     400     401
     381     380     400     402     381     380     400     397
     381     380     382     383     382     383     397     398
     382     383     397     400     382     383     397     399
     382     383     385     386     382     383     385     390
     382     380     400     401     382     380     400     402
     382     380     400     397     383     397     400     401
     383     397     400     402     383     385     386     388
     383     385     386     387     383     385     390     391
     383     385     390     392     383     382     380     400
     384     383     397     398     384     383     397     400
     384     383     397     399     384     383     385     386
     384     383     385     390     385     386     388     389
     385     386     388     393     385     390     392     393
     385     383     397     398     385     383     397     400
     385     383     397     399     386     388     393     392
     386     388     393     394     386     385     390     391
     386     385     390     392     386     385     383     397
     387     386     388     389     387     386     388     393
     387     386     385     390     388     386     385     390
     388     393     392     390     388     393     394     396
     388     393     394     395     389     388     393     392
     389     388     393     394     390     392     393     394
     390     385     383     397     391     390     392     393
     392     393     394     396     392     393     394     395
     397     400     402     403     398     397     400     401
     398     397     400     402     399     397     400     401
     399     397     400     402     400     402     403     406
     400     402     403     405     400     402     403     404
     401     400     402     403     402     403     406     407
     403     406     407     409     403     406     407     408
     403     406     407     410     404     403     406     407
     405     403     406     407     406     407     410     411
     406     407     410     430     406     407     410     412
     407     410     430     431     407     410     430     432
     407     410     430     427     407     410     412     413
     408     407     410     411     408     407     410     430
     408     407     410     412     409     407     410     411
     409     407     410     430     409     407     410     412
     410     430     432     433     410     430     427     428
     410     430     427     413     410     430     427     429
     410     412     413     414     410     412     413     427
     410     412     413     415     411     410     430     431
     411     410     430     432     411     410     430     427
     411     410     412     413     412     413     427     428
     412     413     427     430     412     413     427     429
     412     413     415     416     412     413     415     420
     412     410     430     431     412     410     430     432
     412     410     430     427     413     427     430     431
     413     427     430     432     413     415     416     418
     413     415     416     417     413     415     420     421
     413     415     420     422     413     412     410     430
     414     413     427     428     414     413     427     430
     414     413     427     429     414     413     415     416
     414     413     415     420     415     416     418     419
     415     416     418     423     415     420     422     423
     415     413     427     428     415     413     427     430
     415     413     427     429     416     418     423     422
     416     418     423     424     416     415     420     421
     416     415     420     422     416     415     413     427
     417     416     418     419     417     416     418     423
     417     416     415     420     418     416     415     420
     418     423     422     420     418     423     424     426
     418     423     424     425     419     418     423     422
     419     418     423     424     420     422     423     424
     420     415     413     427     421     420     422     423
     422     423     424     426     422     423     424     425
     427     430     432     433     428     427     430     431
     428     427     430     432     429     427     430     431
     429     427     430     432     430     432     433     436
     430     432     433     435     430     432     433     434
     431     430     432     433     432     433     436     437
     433     436     437     439     433     436     437     438
     433     436     437     440     434     433     436     437
     435     433     436     437     436     437     440     441
     436     437     440     462     436     437     440     442
     437     440     462     463     437     440     462     464
     437     440     462     459     437     440     442     443
     438     437     440     441     438     437     440     462
     438     437     440     442     439     437     440     441
     439     437     440     462     439     437     440     442
     440     462     464     465     440     462     459     460
     440     462     459     443     440     462     459     461
     440     442     443     444     440     442     443     459
     440     442     443     445     441     440     462     463
     441     440     462     464     441     440     462     459
     441     440     442     443     442     443     459     460
     442     443     459     462     442     443     459     461
     442     443     445     446     442     443     445     448
     442     440     462     463     442     440     462     464
     442     440     462     459     443     459     462     463
     443     459     462     464     443     445     446     454
     443     445     446     447     443     445     448     449
     443     445     448     450     443     442     440     462
     444     443     459     460     444     443     459     462
     444     443     459     461     444     443     445     446
     444     443     445     448     445     446     454     455
     445     446     454     452     445     448     450     452
     445     448     450     451     445     443     459     460
     445     443     459     462     445     443     459     461
     446     454     455     458     446     454     455     457
     446     454     455     456     446     454     452     453
     446     454     452     450     446     445     448     449
     446     445     448     450     446     445     443     459
     447     446     454     455     447     446     454     452
     447     446     445     448     448     450     452     453
     448     450     452     454     448     445     446     454
     448     445     443     459     449     448     450     452
     449     448     450     451     450     452     454     455
     451     450     452     453     451     450     452     454
     452     454     455     458     452     454     455     457
     452     454     455     456     453     452     454     455
     459     462     464     465     460     459     462     463
     460     459     462     464     461     459     462     463
     461     459     462     464     462     464     465     468
     462     464     465     467     462     464     465     466
     463     462     464     465     464     465     468     469
     465     468     469     471     465     468     469     470
     465     468     469     472     466     465     468     469
     467     465     468     469     468     469     472     473
     468     469     472     495     468     469     472     474
     469     472     495     496     469     472     495     497
     469     472     495     492     469     472     474     475
     470     469     472     473     470     469     472     495
     470     469     472     474     471     469     472     473
     471     469     472     495     471     469     472     474
     472     495     497     498     472     495     492     493
     472     495     492     475     472     495     492     494
     472     474     475     476     472     474     475     492
     472     474     475     477     473     472     495     496
     473     472     495     497     473     472     495     492
     473     472     474     475     474     475     492     493
     474     475     492     495     474     475     492     494
     474     475     477     490     474     475     477     478
     474     472     495     496     474     472     495     497
     474     472     495     492     475     492     495     496
     475     492     495     497     475     477     490     489
     475     477     490     491     475     477     478     488
     475     477     478     482     475     474     472     495
     476     475     492     493     476     475     492     495
     476     475     492     494     476     475     477     490
     476     475     477     478     477     490     489     488
     477     478     488     489     477     478     488     486
     477     478     482     483     477     475     492     493
     477     475     492     495     477     475     492     494
     478     488     489     490     478     488     486     487
     478     488     486     484     478     482     483     484
     478     482     483     479     478     477     490     489
     478     477     490     491     478     477     475     492
     479     483     484     486     479     483     484     485
     480     479     483     482     480     479     483     484
     481     479     483     482     481     479     483     484
     482     483     484     486     482     483     484     485
     482     478     488     489     482     478     488     486
     482     478     477     490     483     482     478     488
     483     484     486     487     483     484     486     488
     484     486     488     489     485     484     486     487
     485     484     486     488     486     488     489     490
     487     486     488     489     488     478     477     490
     488     489     490     491     490     477     475     492
     492     495     497     498     493     492     495     496
     493     492     495     497     494     492     495     496
     494     492     495     497     495     497     498     501
     495     497     498     500     495     497     498     499
     496     495     497     498     497     498     501     502
     498     501     502     504     498     501     502     503
     498     501     502     505     499     498     501     502
     500     498     501     502     501     502     505     506
     501     502     505     527     501     502     505     507
     502     505     527     528     502     505     527     529
     502     505     527     524     502     505     507     508
     503     502     505     506     503     502     505     527
     503     502     505     507     504     502     505     506
     504     502     505     527     504     502     505     507
     505     527     529     530     505     527     524     525
     505     527     524     508     505     527     524     526
     505     507     508     509     505     507     508     524
     505     507     508     510     506     505     527     528
     506     505     527     529     506     505     527     524
     506     505     507     508     507     508     524     525
     507     508     524     527     507     508     524     526
     507     508     510     511     507     508     510     513
     507     505     527     528     507     505     527     529
     507     505     527     524     508     524     527     528
     508     524     527     529     508     510     511     519
     508     510     511     512     508     510     513     514
     508     510     513     515     508     507     505     527
     509     508     524     525     509     508     524     527
     509     508     524     526     509     508     510     511
     509     508     510     513     510     511     519     520
     510     511     519     517     510     513     515     517
     510     513     515     516     510     508     524     525
     510     508     524     527     510     508     524     526
     511     519     520     523     511     519     520     522
     511     519     520     521     511     519     517     518
     511     519     517     515     511     510     513     514
     511     510     513     515     511     510     508     524
     512     511     519     520     512     511     519     517
     512     511     510     513     513     515     517     518
     513     515     517     519     513     510     511     519
     513     510     508     524     514     513     515     517
     514     513     515     516     515     517     519     520
     516     515     517     518     516     515     517     519
     517     519     520     523     517     519     520     522
     517     519     520     521     518     517     519     520
     524     527     529     530     525     524     527     528
     525     524     527     529     526     524     527     528
     526     524     527     529     527     529     530     533
     527     529     530     532     527     529     530     531
     528     527     529     530     529     530     533     534
     530     533     534     536     530     533     534     535
     530     533     534     537     531     530     533     534
     532     530     533     534     533     534     537     538
     533     534     537     560     533     534     537     539
     534     537     560     561     534     537     560     562
     534     537     560     557     534     537     539     540
     535     534     537     538     535     534     537     560
     535     534     537     539     536     534     537     538
     536     534     537     560     536     534     537     539
     537     560     562     563     537     560     557     558
     537     560     557     540     537     560     557     559
     537     539     540     541     537     539     540     557
     537     539     540     542     538     537     560     561
     538     537     560     562     538     537     560     557
     538     537     539     540     539     540     557     558
     539     540     557     560     539     540     557     559
     539     540     542     555     539     540     542     543
     539     537     560     561     539     537     560     562
     539     537     560     557     540     557     560     561
     540     557     560     562     540     542     555     554
     540     542     555     556     540     542     543     553
     540     542     543     547     540     539     537     560
     541     540     557     558     541     540     557     560
     541     540     557     559     541     540     542     555
     541     540     542     543     542     555     554     553
     542     543     553     554     542     543     553     551
     542     543     547     548     542     540     557     558
     542     540     557     560     542     540     557     559
     543     553     554     555     543     553     551     552
     543     553     551     549     543     547     548     549
     543     547     548     544     543     542     555     554
     543     542     555     556     543     542     540     557
     544     548     549     551     544     548     549     550
     545     544     548     547     545     544     548     549
     546     544     548     547     546     544     548     549
     547     548     549     551     547     548     549     550
     547     543     553     554     547     543     553     551
     547     543     542     555     548     547     543     553
     548     549     551     552     548     549     551     553
     549     551     553     554     550     549     551     552
     550     549     551     553     551     553     554     555
     552     551     553     554     553     543     542     555
     553     554     555     556     555     542     540     557
     557     560     562     563     558     557     560     561
     558     557     560     562     559     557     560     561
     559     557     560     562     560     562     563     566
     560     562     563     565     560     562     563     564
     561     560     562     563     562     563     566     567
     563     566     567     569     563     566     567     568
     563     566     567     570     564     563     566     567
     565     563     566     567     566     567     570     571
     566     567     570     592     566     567     570     572
     567     570     592     593     567     570     592     594
     567     570     592     589     567     570     572     573
     568     567     570     571     568     567     570     592
     568     567     570     572     569     567     570     571
     569     567     570     592     569     567     570     572
     570     592     594     595     570     592     589     590
     570     592     589     573     570     592     589     591
     570     572     573     574     570     572     573     589
     570     572     573     575     571     570     592     593
     571     570     592     594     571     570     592     589
     571     570     572     573     572     573     589     590
     572     573     589     592     572     573     589     591
     572     573     575     578     572     573     575     584
     572     570     592     593     572     570     592     594
     572     570     592     589     573     589     592     593
     573     589     592     594     573     575     578     577
     573     575     578     579     573     575     584     576
     573     575     584     583     573     572     570     592
     574     573     589     590     574     573     589     592
     574     573     589     591     574     573     575     578
     574     573     575     584     575     578     577     576
     575     584     576     577     575     584     576     585
     575     584     583     581     575     573     589     590
     575     573     589     592     575     573     589     591
     576     584     583     581     576     584     575     578
     576     577     578     579     576     585     580     581
     576     585     586     588     576     585     586     587
     577     578     575     584     577     576     584     583
     577     576     585     580     577     576     585     586
     578     577     576     584     578     577     576     585
     578     575     584     583     578     575     573     589
     579     578     575     584     580     585     576     584
     580     585     586     588     580     585     586     587
     580     581     583     584     581     580     585     586
     582     581     583     584     582     581     580     585
     583     581     580     585     583     584     576     585
     584     576     585     586     584     575     573     589
     589     592     594     595     590     589     592     593
     590     589     592     594     591     589     592     593
     591     589     592     594     592     594     595     598
     592     594     595     597     592     594     595     596
     593     592     594     595     594     595     598     599
     595     598     599     601     595     598     599     600
     595     598     599     602     596     595     598     599
     597     595     598     599     598     599     602     603
     598     599     602     625     598     599     602     604
     599     602     625     626     599     602     625     627
     599     602     625     622     599     602     604     605
     600     599     602     603     600     599     602     625
     600     599     602     604     601     599     602     603
     601     599     602     625     601     599     602     604
     602     625     627     628     602     625     622     623
     602     625     622     605     602     625     622     624
     602     604     605     606     602     604     605     622
     602     604     605     607     603     602     625     626
     603     602     625     627     603     602     625     622
     603     602     604     605     604     605     622     623
     604     605     622     625     604     605     622     624
     604     605     607     620     604     605     607     608
     604     602     625     626     604     602     625     627
     604     602     625     622     605     622     625     626
     605     622     625     627     605     607     620     619
     605     607     620     621     605     607     608     618
     605     607     608     612     605     604     602     625
     606     605     622     623     606     605     622     625
     606     605     622     624     606     605     607     620
     606     605     607     608     607     620     619     618
     607     608     618     619     607     608     618     616
     607     608     612     613     607     605     622     623
     607     605     622     625     607     605     622     624
     608     618     619     620     608     618     616     617
     608     618     616     614     608     612     613     614
     608     612     613     609     608     607     620     619
     608     607     620     621     608     607     605     622
     609     613     614     616     609     613     614     615
     610     609     613     612     610     609     613     614
     611     609     613     612     611     609     613     614
     612     613     614     616     612     613     614     615
     612     608     618     619     612     608     618     616
     612     608     607     620     613     612     608     618
     613     614     616     617     613     614     616     618
     614     616     618     619     615     614     616     617
     615     614     616     618     616     618     619     620
     617     616     618     619     618     608     607     620
     618     619     620     621     620     607     605     622
     622     625     627     628     623     622     625     626
     623     622     625     627     624     622     625     626
     624     622     625     627     625     627     628     631
     625     627     628     630     625     627     628     629
     626     625     627     628     627     628     631     632
     628     631     632     634     628     631     632     633
     628     631     632     635     629     628     631     632
     630     628     631     632     631     632     635     636
     631     632     635     657     631     632     635     637
     632     635     657     658     632     635     657     659
     632     635     657     654     632     635     637     638
     633     632     635     636     633     632     635     657
     633     632     635     637     634     632     635     636
     634     632     635     657     634     632     635     637
     635     657     659     660     635     657     654     655
     635     657     654     638     635     657     654     656
     635     637     638     639     635     637     638     654
     635     637     638     640     636     635     657     658
     636     635     657     659     636     635     657     654
     636     635     637     638     637     638     654     655
     637     638     654     657     637     638     654     656
     637     638     640     643     637     638     640     649
     637     635     657     658     637     635     657     659
     637     635     657     654     638     654     657     658
     638     654     657     659     638     640     643     642
     638     640     643     644     638     640     649     641
     638     640     649     648     638     637     635     657
     639     638     654     655     639     638     654     657
     639     638     654     656     639     638     640     643
     639     638     640     649     640     643     642     641
     640     649     641     642     640     649     641     650
     640     649     648     646     640     638     654     655
     640     638     654     657     640     638     654     656
     641     649     648     646     641     649     640     643
     641     642     643     644     641     650     645     646
     641     650     651     653     641     650     651     652
     642     643     640     649     642     641     649     648
     642     641     650     645     642     641     650     651
     643     642     641     649     643     642     641     650
     643     640     649     648     643     640     638     654
     644     643     640     649     645     650     641     649
     645     650     651     653     645     650     651     652
     645     646     648     649     646     645     650     651
     647     646     648     649     647     646     645     650
     648     646     645     650     648     649     641     650
     649     641     650     651     649     640     638     654
     654     657     659     660     655     654     657     658
     655     654     657     659     656     654     657     658
     656     654     657     659     658     657     659     660

      58 !NIMPHI: impropers
      16      11      18      17      19      18      14      20
      20      19      21      22      50      45      41      51
      51      50      52      53      73      74      77      75
      77      76      78      73      80      78      82      81
     106     103     108     107     110     108     112     111
     112     110     104     113     139     134     141     140
     142     141     137     143     143     142     144     145
     165     166     169     167     169     168     170     165
     172     170     174     173     201     196     203     202
     204     203     199     205     205     204     206     207
     229     226     231     230     233     231     235     234
     235     233     227     236     260     261     264     262
     264     263     265     260     267     265     269     268
     296     291     298     297     299     298     294     300
     300     299     301     302     331     326     322     332
     332     331     333     334     363     358     354     364
     364     363     365     366     390     385     392     391
     393     392     388     394     394     393     395     396
     420     415     422     421     423     422     418     424
     424     423     425     426     448     445     450     449
     452     450     454     453     454     452     446     455
     479     480     483     481     483     482     484     479
     486     484     488     487     513     510     515     514
     517     515     519     518     519     517     511     520
     544     545     548     546     548     547     549     544
     551     549     553     552     585     580     576     586
     586     585     587     588     609     610     613     611
     613     612     614     609     616     614     618     617
     650     645     641     651     651     650     652     653

       0 !NDON: donors


       0 !NACC: acceptors


       0 !NNB

       0       0       0       0       0       0       0       0
       0       0       0       0       0       0       0       0
       0       0       0       0       0       0       0       0
       0       0       0       0       0       0       0       0
       0       0       0       0       0       0       0       0
       0       0       0       0       0       0       0       0
       0       0       0       0       0       0       0       0
       0       0       0       0       0       0       0       0
       0       0       0       0       0       0       0       0
       0       0       0       0       0       0       0       0
       0       0       0       0       0       0       0       0
       0       0       0       0       0       0       0       0
       0       0       0       0       0       0       0       0
       0       0       0       0       0       0       0       0
       0       0       0       0       0       0       0       0
       0       0       0       0       0       0       0       0
       0       0       0       0       0       0       0       0
       0       0       0       0       0       0       0       0
       0       0       0       0       0       0       0       0
       0       0       0       0       0       0       0       0
       0       0       0       0       0       0       0       0
       0       0       0       0       0       0       0       0
       0       0       0       0       0       0       0       0
       0       0       0       0       0       0       0       0
       0       0       0       0       0       0       0       0
       0       0       0       0       0       0       0       0
       0       0       0       0       0       0       0       0
       0       0       0       0       0       0       0       0
       0       0       0       0       0       0       0       0
       0       0       0       0       0       0       0       0
       0       0       0       0       0       0       0       0
       0       0       0       0       0       0       0       0
       0       0       0       0       0       0       0       0
       0       0       0       0       0       0       0       0
       0       0       0       0       0       0       0       0
       0       0       0       0       0       0       0       0
       0       0       0       0       0       0       0       0
       0       0       0       0       0       0       0       0
       0       0       0       0       0       0       0       0
       0       0       0       0       0       0       0       0
       0       0       0       0       0       0       0       0
       0       0       0       0       0       0       0       0
       0       0       0       0       0       0       0       0
       0       0       0       0       0       0       0       0
       0       0       0       0       0       0       0       0
       0       0       0       0       0       0       0       0
       0       0       0       0       0       0       0       0
       0       0       0       0       0       0       0       0
       0       0       0       0       0       0       0       0
       0       0       0       0       0       0       0       0
       0       0       0       0       0       0       0       0
       0       0       0       0       0       0       0       0
       0       0       0       0       0       0       0       0
       0       0       0       0       0       0       0       0
       0       0       0       0       0       0       0       0
       0       0       0       0       0       0       0       0
       0       0       0       0       0       0       0       0
       0       0       0       0       0       0       0       0
       0       0       0       0       0       0       0       0
       0       0       0       0       0       0       0       0
       0       0       0       0       0       0       0       0
       0       0       0       0       0       0       0       0
       0       0       0       0       0       0       0       0
       0       0       0       0       0       0       0       0
       0       0       0       0       0       0       0       0
       0       0       0       0       0       0       0       0
       0       0       0       0       0       0       0       0
       0       0       0       0       0       0       0       0
       0       0       0       0       0       0       0       0
       0       0       0       0       0       0       0       0
       0       0       0       0       0       0       0       0
       0       0       0       0       0       0       0       0
       0       0       0       0       0       0       0       0
       0       0       0       0       0       0       0       0
       0       0       0       0       0       0       0       0
       0       0       0       0       0       0       0       0
       0       0       0       0       0       0       0       0
       0       0       0       0       0       0       0       0
       0       0       0       0       0       0       0       0
       0       0       0       0       0       0       0       0
       0       0       0       0       0       0       0       0
       0       0       0       0       0       0       0       0
       0       0       0       0

       1       0 !NGRP
       0       0       0

